; AmberTools phosaa14SB parameters for ff14SB
; Source: frcmod.phosaa14SB (Homeyer et al., J Mol Model 2006, 12, 281-289)
; PHO*/PHCG are isolated aliases of the source OP/OQ/OR/OT/OV/OX/OZ/CG types.
; Generated by tools/import_amber14sb_phosaa.py; do not edit manually.

[ atomtypes ]
; name  at.num  mass  charge ptype sigma(nm) epsilon(kJ/mol)
  PHOP       8   16.000 0.0000 A   0.311689825529   0.878640000000
  PHOQ       8   16.000 0.0000 A   0.322344974198   0.878640000000
  PHOR       8   16.000 0.0000 A   0.315698869760   0.711280000000
  PHOT       8   16.000 0.0000 A   0.291092247165   0.878640000000
  PHOV       8   16.000 0.0000 A   0.295101291397   0.711280000000
  PHOX       8   16.000 0.0000 A   0.327868546250   0.878640000000
  PHOZ       8   16.000 0.0000 A   0.331877590482   0.711280000000
  PHCG       6   12.010 0.0000 A   0.339966950842   0.359824000000

[ bondtypes ]
    HO   PHOQ 1   0.09600000  462750.400000
  PHOP      P 1   0.14800000  439320.000000
  PHOQ      P 1   0.16100000  192464.000000
  PHOR      P 1   0.16100000  192464.000000
     C   PHOR 1   0.13230000  376560.000000
    CT   PHOR 1   0.14100000  267776.000000
  PHOT      P 1   0.14800000  439320.000000
  PHOV      P 1   0.16100000  192464.000000
     C   PHOV 1   0.13230000  376560.000000
    CT   PHOV 1   0.14100000  267776.000000
  PHOX      P 1   0.14800000  439320.000000
  PHOZ      P 1   0.16100000  192464.000000
     C   PHOZ 1   0.13230000  376560.000000
    CT   PHOZ 1   0.14100000  267776.000000
  PHCG     CT 1   0.15100000  265265.600000
  PHCG     CA 1   0.14000000  392459.200000
    3C   PHOZ 1   0.14100000  267776.000000
    3C   PHOR 1   0.14100000  267776.000000
    2C   PHOR 1   0.14100000  267776.000000
    2C   PHOZ 1   0.14100000  267776.000000

[ angletypes ]
  PHOP      P   PHOP 1   119.900000    1171.520000
  PHOP      P   PHOQ 1   108.230000     753.120000
  PHOQ      P   PHOR 1   108.230000     753.120000
  PHOQ      P   PHOQ 1   108.230000     753.120000
  PHOR      P   PHOR 1   102.600000     753.120000
  PHOR      P   PHOP 1   108.230000     836.800000
    HO   PHOQ      P 1   113.280000     836.800000
     C   PHOR      P 1   120.500000     836.800000
    CA      C   PHOR 1   120.000000     585.760000
    CT   PHOR      P 1   120.500000     836.800000
    CT     CT   PHOR 1   109.500000     418.400000
    H1     CT   PHOR 1   109.500000     418.400000
  PHOT      P   PHOT 1   119.900000    1171.520000
  PHOV      P   PHOV 1   102.600000     753.120000
  PHOV      P   PHOT 1   108.230000     836.800000
     C   PHOV      P 1   120.500000     836.800000
    CA      C   PHOV 1   120.000000     585.760000
    CT   PHOV      P 1   120.500000     836.800000
    CT     CT   PHOV 1   109.500000     418.400000
    H1     CT   PHOV 1   109.500000     418.400000
  PHOX      P   PHOX 1   119.900000    1171.520000
  PHOZ      P   PHOZ 1   102.600000     753.120000
  PHOZ      P   PHOX 1   108.230000     836.800000
     C   PHOZ      P 1   120.500000     836.800000
    CA      C   PHOZ 1   120.000000     585.760000
    CT   PHOZ      P 1   120.500000     836.800000
    CT     CT   PHOZ 1   109.500000     418.400000
    H1     CT   PHOZ 1   109.500000     418.400000
    CA   PHCG     CT 1   120.000000     585.760000
    CA     CA   PHCG 1   120.000000     527.184000
    CA   PHCG     CA 1   120.000000     527.184000
  PHCG     CA     HA 1   120.000000     418.400000
  PHCG     CT     HC 1   109.500000     418.400000
    CX     CT   PHCG 1   114.000000     527.184000
    NA      P   PHOQ 1   102.380000     358.987200
    CT     3C   PHOR 1   109.500000     418.400000
    CT     3C   PHOZ 1   109.500000     418.400000
    H1     3C   PHOR 1   109.500000     418.400000
    H1     3C   PHOZ 1   109.500000     418.400000
    H1     2C   PHOR 1   109.500000     418.400000
    H1     2C   PHOZ 1   109.500000     418.400000
    2C   PHOZ      P 1   120.500000     836.800000
    2C   PHOR      P 1   120.500000     836.800000
    3C   PHOR      P 1   120.500000     836.800000
    3C   PHOZ      P 1   120.500000     836.800000
    CX     3C   PHOZ 1   109.500000     418.400000
    CX     3C   PHOR 1   109.500000     418.400000
    CX     2C   PHOZ 1   109.500000     418.400000
    CX     2C   PHOR 1   109.500000     418.400000

[ dihedraltypes ]
     N     CX     CT   PHCG 9     0.000000     0.63635711   1
     N     CX     CT   PHCG 9   180.000000     0.72294499   2
     N     CX     CT   PHCG 9     0.000000     2.05159093   3
     N     CX     CT   PHCG 9   180.000000     0.18891178   4
     N     CX     2C   PHOR 9     0.000000     2.37906424   1
     N     CX     2C   PHOR 9     0.000000     8.93596545   2
     N     CX     2C   PHOR 9     0.000000     2.21229000   3
     N     CX     2C   PHOR 9   180.000000     4.18950196   4
     N     CX     3C   PHOR 9     0.000000     6.77027266   1
     N     CX     3C   PHOR 9     0.000000    15.00892011   2
     N     CX     3C   PHOR 9   180.000000     1.59915409   3
     N     CX     3C   PHOR 9   180.000000     4.83664961   4
    CX     CT   PHCG     CA 9   180.000000     6.74575860   1
    CX     CT   PHCG     CA 9     0.000000     2.79707513   2
    CX     CT   PHCG     CA 9     0.000000     3.39369261   3
    CX     CT   PHCG     CA 9     0.000000     0.25109021   4
  PHOR      P   PHOQ     HO 9   180.000000    12.06221678   1
  PHOR      P   PHOQ     HO 9     0.000000    35.20526384   2
  PHOR      P   PHOQ     HO 9   180.000000     5.38123486   3
  PHOR      P   PHOQ     HO 9     0.000000    15.94578047   4
    CA      C   PHOV      P 9     0.000000     8.27932849   1
    CA      C   PHOV      P 9   180.000000     3.44243202   2
    CA      C   PHOV      P 9   180.000000    17.27542220   3
    CA      C   PHOV      P 9     0.000000     2.31161398   4
    CX     2C   PHOR      P 9   180.000000     3.00608685   1
    CX     2C   PHOR      P 9     0.000000     5.21295438   2
    CX     2C   PHOR      P 9     0.000000     1.17679602   3
    CX     2C   PHOR      P 9   180.000000     2.92439843   4
    CX     3C   PHOR      P 9   180.000000     5.10304070   1
    CX     3C   PHOR      P 9     0.000000     1.18759074   2
    CX     3C   PHOR      P 9     0.000000     5.54943585   3
    CX     3C   PHOR      P 9     0.000000     0.20088639   4
    CA      C   PHOR      P 9   180.000000    75.20862173   1
    CA      C   PHOR      P 9   180.000000     5.69582982   2
    CA      C   PHOR      P 9   180.000000     5.67655414   3
    CA      C   PHOR      P 9     0.000000     2.38212693   4
     C   PHOV      P   PHOT 9   180.000000     2.00173020   3
    2C   PHOR      P   PHOP 9     0.000000     1.29706929   3
    3C   PHOR      P   PHOP 9     0.000000     0.71002062   3
     C   PHOR      P   PHOP 9     0.000000     7.60965418   3
     N     CX     2C   PHOZ 9   180.000000    19.89946801   1
     N     CX     2C   PHOZ 9     0.000000    12.31995954   2
     N     CX     2C   PHOZ 9     0.000000    17.51174289   3
     N     CX     2C   PHOZ 9     0.000000     4.28256667   4
    CX     2C   PHOZ      P 9   180.000000    40.83589021   1
    CX     2C   PHOZ      P 9   180.000000    21.84067246   2
    CX     2C   PHOZ      P 9     0.000000     3.76754556   3
    CX     2C   PHOZ      P 9   180.000000     8.73878190   4
    2C   PHOZ      P   PHOX 9     0.000000     5.77715005   3
     N     CX     3C   PHOZ 9   180.000000    10.57206844   1
     N     CX     3C   PHOZ 9     0.000000    11.97847820   2
     N     CX     3C   PHOZ 9     0.000000     9.90739820   3
     N     CX     3C   PHOZ 9     0.000000    13.77820488   4
    CX     3C   PHOZ      P 9   180.000000    16.15076718   1
    CX     3C   PHOZ      P 9   180.000000     8.00086655   2
    CX     3C   PHOZ      P 9     0.000000    18.24649931   3
    CX     3C   PHOZ      P 9   180.000000     0.84156558   4
    3C   PHOZ      P   PHOX 9   180.000000     3.73454217   3
    CC     NA      P   PHOP 9   180.000000     0.09002713   3
    CW     NA      P   PHOP 9     0.000000     0.76048802   3
    NA      P   PHOQ     HO 9   180.000000     4.10068819   1
    NA      P   PHOQ     HO 9     0.000000     7.28030226   2
    NA      P   PHOQ     HO 9     0.000000     1.66066726   3
    NA      P   PHOQ     HO 9     0.000000     0.12574594   4
    H1     2C   PHOZ      P 9     0.000000     0.00000000   1
    H1     2C   PHOZ      P 9     0.000000     0.00000000   2
    H1     2C   PHOZ      P 9     0.000000     0.00000000   3
    H1     2C   PHOZ      P 9     0.000000     0.00000000   4
    H1     3C   PHOZ      P 9     0.000000     0.00000000   1
    H1     3C   PHOZ      P 9     0.000000     0.00000000   2
    H1     3C   PHOZ      P 9     0.000000     0.00000000   3
    H1     3C   PHOZ      P 9     0.000000     0.00000000   4
    H1     3C   PHOR      P 9     0.000000     0.00000000   1
    H1     3C   PHOR      P 9     0.000000     0.00000000   2
    H1     3C   PHOR      P 9     0.000000     0.00000000   3
    H1     3C   PHOR      P 9     0.000000     0.00000000   4
    CT     3C   PHOZ      P 9     0.000000     0.00000000   1
    CT     3C   PHOZ      P 9     0.000000     0.00000000   2
    CT     3C   PHOZ      P 9     0.000000     0.00000000   3
    CT     3C   PHOZ      P 9     0.000000     0.00000000   4
    CT     3C   PHOR      P 9     0.000000     0.00000000   1
    CT     3C   PHOR      P 9     0.000000     0.00000000   2
    CT     3C   PHOR      P 9     0.000000     0.00000000   3
    CT     3C   PHOR      P 9     0.000000     0.00000000   4
    HC     CT     3C   PHOZ 9     0.000000     0.00000000   1
    HC     CT     3C   PHOZ 9     0.000000     0.00000000   2
    HC     CT     3C   PHOZ 9     0.000000     0.00000000   3
    HC     CT     3C   PHOZ 9     0.000000     0.00000000   4
    HC     CT     3C   PHOR 9     0.000000     0.00000000   1
    HC     CT     3C   PHOR 9     0.000000     0.00000000   2
    HC     CT     3C   PHOR 9     0.000000     0.00000000   3
    HC     CT     3C   PHOR 9     0.000000     0.00000000   4
    H1     2C   PHOR      P 9     0.000000     0.00000000   1
    H1     2C   PHOR      P 9     0.000000     0.00000000   2
    H1     2C   PHOR      P 9     0.000000     0.00000000   3
    H1     2C   PHOR      P 9     0.000000     0.00000000   4
    2C   PHOR      P   PHOQ 9     0.000000     0.00000000   1
    2C   PHOR      P   PHOQ 9     0.000000     0.00000000   2
    2C   PHOR      P   PHOQ 9     0.000000     0.00000000   3
    2C   PHOR      P   PHOQ 9     0.000000     0.00000000   4
    3C   PHOR      P   PHOQ 9     0.000000     0.00000000   1
    3C   PHOR      P   PHOQ 9     0.000000     0.00000000   2
    3C   PHOR      P   PHOQ 9     0.000000     0.00000000   3
    3C   PHOR      P   PHOQ 9     0.000000     0.00000000   4
     C   PHOR      P   PHOQ 9     0.000000     0.00000000   1
     C   PHOR      P   PHOQ 9     0.000000     0.00000000   2
     C   PHOR      P   PHOQ 9     0.000000     0.00000000   3
     C   PHOR      P   PHOQ 9     0.000000     0.00000000   4
  PHOP      P   PHOQ     HO 9     0.000000     0.00000000   1
  PHOP      P   PHOQ     HO 9     0.000000     0.00000000   2
  PHOP      P   PHOQ     HO 9     0.000000     0.00000000   3
  PHOP      P   PHOQ     HO 9     0.000000     0.00000000   4
    CA     CA   PHCG     CA 9   180.000000     0.00000000   2
    HA     CA   PHCG     CA 9   180.000000     0.00000000   2
    CA   PHCG     CA     HA 9   180.000000     0.00000000   2
    HC     CT   PHCG     CA 9   180.000000     0.00000000   2
    CT   PHCG     CA     CA 9   180.000000     0.00000000   2
    CT   PHCG     CA     HA 9   180.000000     0.00000000   2
    CW     NA      P   PHOQ 9     0.000000     0.00000000   3
    CC     NA      P   PHOQ 9     0.000000     0.00000000   3
    CR     NA      P   PHOQ 9     0.000000     0.00000000   3
    CA   PHCG     CA     HA 4   180.000000     4.60240000   2
; Isolated-type equivalents of ff14SB aromatic planarity impropers.
; PHCG is the frcmod CG analogue of CA; PHOR/PHOV are bridging-O analogues.
    CA     CA   PHCG     CT 4   180.000000     4.60240000   2
    CA     CA      C   PHOR 4   180.000000     4.60240000   2
    CA     CA      C   PHOV 4   180.000000     4.60240000   2
