; Base asset: official CHARMM36 March 2019 GROMACS port.
#define _FF_CHARMM

[ defaults ]
; nbfunc  comb-rule  gen-pairs  fudgeLJ  fudgeQQ
1  2  yes  1.0  1.0

#include "ffnonbonded.itp"
#include "ffbonded.itp"
#include "gmxbuilder-plasmalogen-bonded.itp"
#include "gmxbuilder-current-lipid-bonded.itp"
#include "gb.itp"

#ifdef USE_OLD_C36
#include "old_c36_cmap.itp"
#else
#include "cmap.itp"
#endif

#include "nbfix.itp"
