Pre-built SPC water box, 2197 mols, 4.0nm
 6591
    1SOL  OW       1   0.176   0.149   0.183
    1SOL  HW1      2   0.122   0.140   0.099
    1SOL  HW2      3   0.122   0.198   0.251
    2SOL  OW       4   0.170   0.121   0.500
    2SOL  HW1      5   0.172   0.042   0.560
    2SOL  HW2      6   0.167   0.091   0.404
    3SOL  OW       7   0.175   0.177   0.739
    3SOL  HW1      8   0.256   0.121   0.722
    3SOL  HW2      9   0.160   0.240   0.663
    4SOL  OW      10   0.150   0.144   1.111
    4SOL  HW1     11   0.150   0.044   1.118
    4SOL  HW2     12   0.158   0.170   1.015
    5SOL  OW      13   0.165   0.180   1.380
    5SOL  HW1     14   0.223   0.219   1.451
    5SOL  HW2     15   0.194   0.085   1.362
    6SOL  OW      16   0.132   0.158   1.657
    6SOL  HW1     17   0.117   0.060   1.668
    6SOL  HW2     18   0.075   0.193   1.582
    7SOL  OW      19   0.180   0.164   2.021
    7SOL  HW1     20   0.178   0.147   2.119
    7SOL  HW2     21   0.189   0.078   1.972
    8SOL  OW      22   0.142   0.192   2.339
    8SOL  HW1     23   0.059   0.217   2.290
    8SOL  HW2     24   0.221   0.238   2.299
    9SOL  OW      25   0.176   0.129   2.613
    9SOL  HW1     26   0.243   0.132   2.538
    9SOL  HW2     27   0.190   0.047   2.667
   10SOL  OW      28   0.117   0.126   2.938
   10SOL  HW1     29   0.134   0.155   2.843
   10SOL  HW2     30   0.203   0.094   2.978
   11SOL  OW      31   0.173   0.191   3.217
   11SOL  HW1     32   0.225   0.125   3.163
   11SOL  HW2     33   0.134   0.260   3.156
   12SOL  OW      34   0.143   0.151   3.514
   12SOL  HW1     35   0.099   0.063   3.525
   12SOL  HW2     36   0.193   0.174   3.597
   13SOL  OW      37   0.124   0.152   3.824
   13SOL  HW1     38   0.146   0.164   3.728
   13SOL  HW2     39   0.056   0.220   3.852
   14SOL  OW      40   0.167   0.457   0.180
   14SOL  HW1     41   0.160   0.393   0.103
   14SOL  HW2     42   0.125   0.544   0.156
   15SOL  OW      43   0.170   0.447   0.488
   15SOL  HW1     44   0.176   0.449   0.588
   15SOL  HW2     45   0.119   0.526   0.456
   16SOL  OW      46   0.178   0.453   0.752
   16SOL  HW1     47   0.253   0.407   0.704
   16SOL  HW2     48   0.177   0.422   0.848
   17SOL  OW      49   0.168   0.433   1.053
   17SOL  HW1     50   0.108   0.415   0.975
   17SOL  HW2     51   0.252   0.477   1.021
   18SOL  OW      52   0.114   0.484   1.398
   18SOL  HW1     53   0.133   0.420   1.323
   18SOL  HW2     54   0.201   0.519   1.435
   19SOL  OW      55   0.170   0.484   1.689
   19SOL  HW1     56   0.260   0.498   1.646
   19SOL  HW2     57   0.116   0.422   1.633
   20SOL  OW      58   0.159   0.433   1.969
   20SOL  HW1     59   0.108   0.431   1.883
   20SOL  HW2     60   0.157   0.342   2.011
   21SOL  OW      61   0.167   0.459   2.313
   21SOL  HW1     62   0.083   0.406   2.320
   21SOL  HW2     63   0.244   0.404   2.345
   22SOL  OW      64   0.175   0.472   2.620
   22SOL  HW1     65   0.235   0.525   2.559
   22SOL  HW2     66   0.101   0.531   2.652
   23SOL  OW      67   0.159   0.446   2.886
   23SOL  HW1     68   0.082   0.440   2.949
   23SOL  HW2     69   0.211   0.361   2.888
   24SOL  OW      70   0.149   0.439   3.223
   24SOL  HW1     71   0.113   0.480   3.307
   24SOL  HW2     72   0.249   0.434   3.228
   25SOL  OW      73   0.182   0.440   3.503
   25SOL  HW1     74   0.163   0.448   3.405
   25SOL  HW2     75   0.120   0.374   3.544
   26SOL  OW      76   0.136   0.445   3.859
   26SOL  HW1     77   0.089   0.397   3.933
   26SOL  HW2     78   0.076   0.453   3.780
   27SOL  OW      79   0.158   0.792   0.167
   27SOL  HW1     80   0.076   0.779   0.223
   27SOL  HW2     81   0.148   0.743   0.081
   28SOL  OW      82   0.146   0.794   0.435
   28SOL  HW1     83   0.177   0.844   0.354
   28SOL  HW2     84   0.109   0.859   0.501
   29SOL  OW      85   0.116   0.736   0.787
   29SOL  HW1     86   0.195   0.752   0.729
   29SOL  HW2     87   0.123   0.647   0.831
   30SOL  OW      88   0.151   0.742   1.077
   30SOL  HW1     89   0.120   0.682   1.003
   30SOL  HW2     90   0.207   0.690   1.141
   31SOL  OW      91   0.126   0.785   1.380
   31SOL  HW1     92   0.108   0.707   1.320
   31SOL  HW2     93   0.070   0.776   1.463
   32SOL  OW      94   0.144   0.753   1.703
   32SOL  HW1     95   0.203   0.821   1.658
   32SOL  HW2     96   0.194   0.667   1.713
   33SOL  OW      97   0.143   0.736   1.969
   33SOL  HW1     98   0.045   0.747   1.989
   33SOL  HW2     99   0.165   0.639   1.964
   34SOL  OW     100   0.191   0.802   2.324
   34SOL  HW1    101   0.125   0.804   2.249
   34SOL  HW2    102   0.273   0.852   2.297
   35SOL  OW     103   0.135   0.807   2.638
   35SOL  HW1    104   0.070   0.794   2.713
   35SOL  HW2    105   0.095   0.772   2.553
   36SOL  OW     106   0.171   0.765   2.905
   36SOL  HW1    107   0.160   0.741   2.809
   36SOL  HW2    108   0.245   0.831   2.914
   37SOL  OW     109   0.122   0.801   3.227
   37SOL  HW1    110   0.170   0.839   3.148
   37SOL  HW2    111   0.039   0.855   3.245
   38SOL  OW     112   0.130   0.754   3.545
   38SOL  HW1    113   0.045   0.711   3.515
   38SOL  HW2    114   0.205   0.722   3.487
   39SOL  OW     115   0.128   0.798   3.867
   39SOL  HW1    116   0.209   0.827   3.816
   39SOL  HW2    117   0.050   0.854   3.840
   40SOL  OW     118   0.171   1.071   0.164
   40SOL  HW1    119   0.081   1.112   0.174
   40SOL  HW2    120   0.210   1.097   0.075
   41SOL  OW     121   0.161   1.089   0.428
   41SOL  HW1    122   0.102   1.113   0.351
   41SOL  HW2    123   0.135   0.998   0.462
   42SOL  OW     124   0.147   1.040   0.769
   42SOL  HW1    125   0.081   1.112   0.748
   42SOL  HW2    126   0.153   1.028   0.868
   43SOL  OW     127   0.140   1.048   1.045
   43SOL  HW1    128   0.057   1.087   1.084
   43SOL  HW2    129   0.130   0.950   1.035
   44SOL  OW     130   0.161   1.051   1.419
   44SOL  HW1    131   0.257   1.058   1.444
   44SOL  HW2    132   0.134   1.131   1.366
   45SOL  OW     133   0.160   1.065   1.700
   45SOL  HW1    134   0.164   0.974   1.742
   45SOL  HW2    135   0.239   1.076   1.639
   46SOL  OW     136   0.116   1.114   1.999
   46SOL  HW1    137   0.120   1.099   1.900
   46SOL  HW2    138   0.134   1.027   2.046
   47SOL  OW     139   0.176   1.044   2.307
   47SOL  HW1    140   0.218   1.133   2.325
   47SOL  HW2    141   0.092   1.035   2.359
   48SOL  OW     142   0.153   1.112   2.621
   48SOL  HW1    143   0.179   1.048   2.693
   48SOL  HW2    144   0.053   1.119   2.617
   49SOL  OW     145   0.152   1.058   2.910
   49SOL  HW1    146   0.090   1.099   2.842
   49SOL  HW2    147   0.209   0.990   2.865
   50SOL  OW     148   0.155   1.072   3.192
   50SOL  HW1    149   0.101   1.126   3.128
   50SOL  HW2    150   0.105   0.989   3.218
   51SOL  OW     151   0.180   1.109   3.510
   51SOL  HW1    152   0.151   1.191   3.461
   51SOL  HW2    153   0.251   1.062   3.457
   52SOL  OW     154   0.158   1.046   3.860
   52SOL  HW1    155   0.102   1.017   3.782
   52SOL  HW2    156   0.253   1.017   3.845
   53SOL  OW     157   0.136   1.397   0.172
   53SOL  HW1    158   0.157   1.452   0.091
   53SOL  HW2    159   0.097   1.456   0.243
   54SOL  OW     160   0.175   1.353   0.495
   54SOL  HW1    161   0.191   1.340   0.397
   54SOL  HW2    162   0.171   1.264   0.540
   55SOL  OW     163   0.132   1.348   0.774
   55SOL  HW1    164   0.159   1.257   0.806
   55SOL  HW2    165   0.044   1.342   0.727
   56SOL  OW     166   0.144   1.411   1.102
   56SOL  HW1    167   0.118   1.476   1.173
   56SOL  HW2    168   0.099   1.323   1.119
   57SOL  OW     169   0.139   1.421   1.368
   57SOL  HW1    170   0.120   1.353   1.297
   57SOL  HW2    171   0.206   1.487   1.333
   58SOL  OW     172   0.155   1.365   1.727
   58SOL  HW1    173   0.112   1.360   1.817
   58SOL  HW2    174   0.140   1.279   1.678
   59SOL  OW     175   0.127   1.348   1.995
   59SOL  HW1    176   0.150   1.433   2.042
   59SOL  HW2    177   0.037   1.317   2.024
   60SOL  OW     178   0.193   1.416   2.328
   60SOL  HW1    179   0.109   1.429   2.380
   60SOL  HW2    180   0.175   1.355   2.250
   61SOL  OW     181   0.185   1.416   2.617
   61SOL  HW1    182   0.087   1.425   2.601
   61SOL  HW2    183   0.226   1.507   2.624
   62SOL  OW     184   0.139   1.406   2.936
   62SOL  HW1    185   0.196   1.480   2.971
   62SOL  HW2    186   0.070   1.444   2.874
   63SOL  OW     187   0.144   1.352   3.251
   63SOL  HW1    188   0.147   1.387   3.157
   63SOL  HW2    189   0.107   1.423   3.311
   64SOL  OW     190   0.135   1.420   3.518
   64SOL  HW1    191   0.209   1.410   3.451
   64SOL  HW2    192   0.137   1.511   3.558
   65SOL  OW     193   0.124   1.411   3.818
   65SOL  HW1    194   0.069   1.329   3.834
   65SOL  HW2    195   0.220   1.391   3.839
   66SOL  OW     196   0.128   1.700   0.184
   66SOL  HW1    197   0.150   1.785   0.136
   66SOL  HW2    198   0.137   1.714   0.282
   67SOL  OW     199   0.130   1.677   0.484
   67SOL  HW1    200   0.047   1.666   0.539
   67SOL  HW2    201   0.120   1.624   0.399
   68SOL  OW     202   0.192   1.692   0.741
   68SOL  HW1    203   0.139   1.761   0.691
   68SOL  HW2    204   0.133   1.649   0.810
   69SOL  OW     205   0.115   1.671   1.047
   69SOL  HW1    206   0.084   1.667   1.143
   69SOL  HW2    207   0.112   1.765   1.015
   70SOL  OW     208   0.168   1.662   1.385
   70SOL  HW1    209   0.207   1.754   1.378
   70SOL  HW2    210   0.100   1.649   1.313
   71SOL  OW     211   0.169   1.699   1.668
   71SOL  HW1    212   0.150   1.780   1.724
   71SOL  HW2    213   0.090   1.677   1.611
   72SOL  OW     214   0.178   1.710   2.019
   72SOL  HW1    215   0.081   1.721   2.039
   72SOL  HW2    216   0.211   1.625   2.062
   73SOL  OW     217   0.124   1.662   2.342
   73SOL  HW1    218   0.129   1.613   2.255
   73SOL  HW2    219   0.085   1.602   2.412
   74SOL  OW     220   0.146   1.676   2.614
   74SOL  HW1    221   0.196   1.599   2.652
   74SOL  HW2    222   0.186   1.703   2.527
   75SOL  OW     223   0.167   1.729   2.906
   75SOL  HW1    224   0.225   1.701   2.983
   75SOL  HW2    225   0.180   1.665   2.830
   76SOL  OW     226   0.188   1.654   3.235
   76SOL  HW1    227   0.089   1.664   3.244
   76SOL  HW2    228   0.219   1.704   3.155
   77SOL  OW     229   0.165   1.661   3.510
   77SOL  HW1    230   0.226   1.583   3.498
   77SOL  HW2    231   0.082   1.631   3.558
   78SOL  OW     232   0.147   1.730   3.854
   78SOL  HW1    233   0.219   1.711   3.787
   78SOL  HW2    234   0.078   1.789   3.813
   79SOL  OW     235   0.188   2.024   0.151
   79SOL  HW1    236   0.156   1.962   0.080
   79SOL  HW2    237   0.211   2.113   0.110
   80SOL  OW     238   0.177   1.961   0.430
   80SOL  HW1    239   0.203   2.053   0.461
   80SOL  HW2    240   0.082   1.943   0.456
   81SOL  OW     241   0.180   2.024   0.748
   81SOL  HW1    242   0.091   2.002   0.708
   81SOL  HW2    243   0.201   2.120   0.732
   82SOL  OW     244   0.156   2.008   1.106
   82SOL  HW1    245   0.130   2.103   1.088
   82SOL  HW2    246   0.232   1.983   1.047
   83SOL  OW     247   0.162   1.993   1.375
   83SOL  HW1    248   0.072   1.985   1.418
   83SOL  HW2    249   0.230   2.020   1.443
   84SOL  OW     250   0.148   2.012   1.722
   84SOL  HW1    251   0.066   2.052   1.763
   84SOL  HW2    252   0.209   1.979   1.794
   85SOL  OW     253   0.150   1.980   1.979
   85SOL  HW1    254   0.153   2.066   2.029
   85SOL  HW2    255   0.243   1.953   1.952
   86SOL  OW     256   0.174   2.025   2.276
   86SOL  HW1    257   0.247   2.037   2.343
   86SOL  HW2    258   0.213   1.994   2.190
   87SOL  OW     259   0.119   2.008   2.587
   87SOL  HW1    260   0.080   2.073   2.652
   87SOL  HW2    261   0.154   1.928   2.636
   88SOL  OW     262   0.180   1.985   2.895
   88SOL  HW1    263   0.100   1.952   2.946
   88SOL  HW2    264   0.149   2.047   2.822
   89SOL  OW     265   0.188   1.973   3.214
   89SOL  HW1    266   0.282   1.986   3.244
   89SOL  HW2    267   0.176   2.012   3.122
   90SOL  OW     268   0.126   1.969   3.500
   90SOL  HW1    269   0.226   1.964   3.506
   90SOL  HW2    270   0.098   1.959   3.405
   91SOL  OW     271   0.118   1.974   3.810
   91SOL  HW1    272   0.036   1.918   3.803
   91SOL  HW2    273   0.165   1.977   3.722
   92SOL  OW     274   0.161   2.322   0.145
   92SOL  HW1    275   0.232   2.388   0.120
   92SOL  HW2    276   0.071   2.365   0.137
   93SOL  OW     277   0.139   2.308   0.492
   93SOL  HW1    278   0.084   2.226   0.478
   93SOL  HW2    279   0.224   2.284   0.539
   94SOL  OW     280   0.182   2.271   0.744
   94SOL  HW1    281   0.166   2.362   0.782
   94SOL  HW2    282   0.094   2.228   0.721
   95SOL  OW     283   0.133   2.288   1.083
   95SOL  HW1    284   0.220   2.250   1.051
   95SOL  HW2    285   0.124   2.382   1.051
   96SOL  OW     286   0.147   2.272   1.375
   96SOL  HW1    287   0.117   2.237   1.286
   96SOL  HW2    288   0.195   2.199   1.424
   97SOL  OW     289   0.156   2.276   1.719
   97SOL  HW1    290   0.100   2.270   1.636
   97SOL  HW2    291   0.247   2.239   1.701
   98SOL  OW     292   0.118   2.342   1.968
   98SOL  HW1    293   0.097   2.439   1.978
   98SOL  HW2    294   0.195   2.318   2.028
   99SOL  OW     295   0.181   2.340   2.346
   99SOL  HW1    296   0.156   2.275   2.418
   99SOL  HW2    297   0.176   2.295   2.257
  100SOL  OW     298   0.178   2.330   2.627
  100SOL  HW1    299   0.179   2.422   2.587
  100SOL  HW2    300   0.106   2.325   2.696
  101SOL  OW     301   0.176   2.278   2.926
  101SOL  HW1    302   0.255   2.339   2.914
  101SOL  HW2    303   0.148   2.242   2.837
  102SOL  OW     304   0.155   2.336   3.228
  102SOL  HW1    305   0.205   2.391   3.160
  102SOL  HW2    306   0.168   2.239   3.208
  103SOL  OW     307   0.145   2.319   3.520
  103SOL  HW1    308   0.227   2.264   3.506
  103SOL  HW2    309   0.072   2.261   3.557
  104SOL  OW     310   0.125   2.306   3.840
  104SOL  HW1    311   0.190   2.324   3.766
  104SOL  HW2    312   0.149   2.361   3.919
  105SOL  OW     313   0.132   2.605   0.143
  105SOL  HW1    314   0.168   2.658   0.066
  105SOL  HW2    315   0.202   2.599   0.215
  106SOL  OW     316   0.140   2.606   0.476
  106SOL  HW1    317   0.088   2.526   0.507
  106SOL  HW2    318   0.101   2.688   0.517
  107SOL  OW     319   0.138   2.651   0.803
  107SOL  HW1    320   0.237   2.655   0.788
  107SOL  HW2    321   0.112   2.717   0.874
  108SOL  OW     322   0.152   2.602   1.080
  108SOL  HW1    323   0.075   2.647   1.036
  108SOL  HW2    324   0.142   2.607   1.179
  109SOL  OW     325   0.182   2.628   1.409
  109SOL  HW1    326   0.124   2.632   1.328
  109SOL  HW2    327   0.167   2.540   1.456
  110SOL  OW     328   0.156   2.626   1.675
  110SOL  HW1    329   0.227   2.640   1.606
  110SOL  HW2    330   0.197   2.633   1.766
  111SOL  OW     331   0.173   2.592   2.016
  111SOL  HW1    332   0.097   2.656   2.002
  111SOL  HW2    333   0.138   2.498   2.011
  112SOL  OW     334   0.183   2.586   2.317
  112SOL  HW1    335   0.269   2.630   2.340
  112SOL  HW2    336   0.171   2.585   2.218
  113SOL  OW     337   0.121   2.633   2.582
  113SOL  HW1    338   0.165   2.550   2.548
  113SOL  HW2    339   0.022   2.626   2.572
  114SOL  OW     340   0.189   2.586   2.960
  114SOL  HW1    341   0.253   2.510   2.953
  114SOL  HW2    342   0.228   2.657   3.018
  115SOL  OW     343   0.178   2.623   3.253
  115SOL  HW1    344   0.111   2.669   3.195
  115SOL  HW2    345   0.140   2.613   3.345
  116SOL  OW     346   0.177   2.651   3.519
  116SOL  HW1    347   0.209   2.566   3.560
  116SOL  HW2    348   0.081   2.642   3.493
  117SOL  OW     349   0.161   2.583   3.855
  117SOL  HW1    350   0.222   2.509   3.882
  117SOL  HW2    351   0.204   2.671   3.877
  118SOL  OW     352   0.128   2.928   0.160
  118SOL  HW1    353   0.171   2.990   0.225
  118SOL  HW2    354   0.050   2.974   0.117
  119SOL  OW     355   0.151   2.925   0.483
  119SOL  HW1    356   0.062   2.930   0.437
  119SOL  HW2    357   0.138   2.905   0.580
  120SOL  OW     358   0.178   2.922   0.777
  120SOL  HW1    359   0.122   3.004   0.793
  120SOL  HW2    360   0.163   2.857   0.851
  121SOL  OW     361   0.188   2.893   1.046
  121SOL  HW1    362   0.136   2.912   0.963
  121SOL  HW2    363   0.225   2.800   1.041
  122SOL  OW     364   0.121   2.936   1.378
  122SOL  HW1    365   0.065   2.967   1.455
  122SOL  HW2    366   0.064   2.928   1.296
  123SOL  OW     367   0.176   2.937   1.679
  123SOL  HW1    368   0.097   2.957   1.621
  123SOL  HW2    369   0.220   3.022   1.706
  124SOL  OW     370   0.186   2.944   1.982
  124SOL  HW1    371   0.246   2.899   1.915
  124SOL  HW2    372   0.194   3.043   1.973
  125SOL  OW     373   0.143   2.908   2.280
  125SOL  HW1    374   0.207   2.869   2.215
  125SOL  HW2    375   0.120   3.002   2.253
  126SOL  OW     376   0.126   2.958   2.610
  126SOL  HW1    377   0.187   2.986   2.537
  126SOL  HW2    378   0.043   3.015   2.608
  127SOL  OW     379   0.145   2.941   2.927
  127SOL  HW1    380   0.187   2.976   3.011
  127SOL  HW2    381   0.063   2.995   2.907
  128SOL  OW     382   0.189   2.946   3.229
  128SOL  HW1    383   0.241   2.869   3.268
  128SOL  HW2    384   0.187   3.021   3.294
  129SOL  OW     385   0.144   2.962   3.556
  129SOL  HW1    386   0.169   2.972   3.652
  129SOL  HW2    387   0.133   2.865   3.534
  130SOL  OW     388   0.190   2.893   3.874
  130SOL  HW1    389   0.150   2.801   3.883
  130SOL  HW2    390   0.127   2.960   3.912
  131SOL  OW     391   0.165   3.201   0.161
  131SOL  HW1    392   0.170   3.184   0.062
  131SOL  HW2    393   0.138   3.116   0.207
  132SOL  OW     394   0.169   3.192   0.458
  132SOL  HW1    395   0.258   3.159   0.427
  132SOL  HW2    396   0.181   3.270   0.518
  133SOL  OW     397   0.180   3.214   0.766
  133SOL  HW1    398   0.264   3.205   0.713
  133SOL  HW2    399   0.101   3.208   0.705
  134SOL  OW     400   0.149   3.215   1.110
  134SOL  HW1    401   0.217   3.244   1.043
  134SOL  HW2    402   0.154   3.116   1.122
  135SOL  OW     403   0.176   3.200   1.424
  135SOL  HW1    404   0.123   3.282   1.403
  135SOL  HW2    405   0.218   3.210   1.515
  136SOL  OW     406   0.184   3.213   1.719
  136SOL  HW1    407   0.136   3.164   1.647
  136SOL  HW2    408   0.120   3.273   1.767
  137SOL  OW     409   0.122   3.271   2.013
  137SOL  HW1    410   0.046   3.208   2.000
  137SOL  HW2    411   0.098   3.339   2.083
  138SOL  OW     412   0.166   3.198   2.339
  138SOL  HW1    413   0.079   3.211   2.291
  138SOL  HW2    414   0.185   3.279   2.395
  139SOL  OW     415   0.116   3.210   2.587
  139SOL  HW1    416   0.050   3.259   2.644
  139SOL  HW2    417   0.208   3.248   2.602
  140SOL  OW     418   0.176   3.207   2.956
  140SOL  HW1    419   0.250   3.152   2.996
  140SOL  HW2    420   0.103   3.146   2.923
  141SOL  OW     421   0.166   3.194   3.191
  141SOL  HW1    422   0.161   3.266   3.122
  141SOL  HW2    423   0.170   3.105   3.146
  142SOL  OW     424   0.118   3.239   3.563
  142SOL  HW1    425   0.084   3.181   3.636
  142SOL  HW2    426   0.193   3.296   3.597
  143SOL  OW     427   0.133   3.259   3.811
  143SOL  HW1    428   0.056   3.252   3.747
  143SOL  HW2    429   0.216   3.228   3.765
  144SOL  OW     430   0.178   3.573   0.176
  144SOL  HW1    431   0.140   3.627   0.251
  144SOL  HW2    432   0.213   3.486   0.211
  145SOL  OW     433   0.170   3.565   0.425
  145SOL  HW1    434   0.253   3.582   0.372
  145SOL  HW2    435   0.094   3.618   0.385
  146SOL  OW     436   0.130   3.508   0.770
  146SOL  HW1    437   0.166   3.564   0.695
  146SOL  HW2    438   0.035   3.534   0.787
  147SOL  OW     439   0.173   3.549   1.105
  147SOL  HW1    440   0.132   3.474   1.052
  147SOL  HW2    441   0.210   3.618   1.042
  148SOL  OW     442   0.126   3.557   1.360
  148SOL  HW1    443   0.225   3.574   1.363
  148SOL  HW2    444   0.101   3.521   1.270
  149SOL  OW     445   0.136   3.555   1.731
  149SOL  HW1    446   0.161   3.539   1.635
  149SOL  HW2    447   0.060   3.621   1.734
  150SOL  OW     448   0.163   3.503   2.009
  150SOL  HW1    449   0.072   3.464   2.023
  150SOL  HW2    450   0.215   3.496   2.095
  151SOL  OW     451   0.117   3.569   2.324
  151SOL  HW1    452   0.214   3.546   2.322
  151SOL  HW2    453   0.081   3.572   2.231
  152SOL  OW     454   0.128   3.506   2.590
  152SOL  HW1    455   0.076   3.548   2.664
  152SOL  HW2    456   0.169   3.421   2.622
  153SOL  OW     457   0.192   3.535   2.946
  153SOL  HW1    458   0.252   3.542   3.026
  153SOL  HW2    459   0.235   3.581   2.868
  154SOL  OW     460   0.165   3.544   3.202
  154SOL  HW1    461   0.099   3.471   3.220
  154SOL  HW2    462   0.218   3.523   3.121
  155SOL  OW     463   0.190   3.523   3.545
  155SOL  HW1    464   0.278   3.568   3.538
  155SOL  HW2    465   0.134   3.546   3.465
  156SOL  OW     466   0.170   3.550   3.881
  156SOL  HW1    467   0.118   3.599   3.811
  156SOL  HW2    468   0.159   3.452   3.868
  157SOL  OW     469   0.126   3.847   0.146
  157SOL  HW1    470   0.084   3.932   0.113
  157SOL  HW2    471   0.215   3.834   0.103
  158SOL  OW     472   0.152   3.816   0.432
  158SOL  HW1    473   0.237   3.769   0.409
  158SOL  HW2    474   0.121   3.870   0.354
  159SOL  OW     475   0.136   3.831   0.763
  159SOL  HW1    476   0.106   3.735   0.765
  159SOL  HW2    477   0.070   3.887   0.813
  160SOL  OW     478   0.163   3.857   1.070
  160SOL  HW1    479   0.236   3.912   1.030
  160SOL  HW2    480   0.136   3.896   1.158
  161SOL  OW     481   0.147   3.824   1.392
  161SOL  HW1    482   0.176   3.735   1.355
  161SOL  HW2    483   0.221   3.890   1.383
  162SOL  OW     484   0.139   3.809   1.686
  162SOL  HW1    485   0.081   3.780   1.762
  162SOL  HW2    486   0.087   3.805   1.601
  163SOL  OW     487   0.152   3.824   2.006
  163SOL  HW1    488   0.229   3.801   1.947
  163SOL  HW2    489   0.071   3.773   1.976
  164SOL  OW     490   0.159   3.862   2.320
  164SOL  HW1    491   0.078   3.806   2.301
  164SOL  HW2    492   0.161   3.887   2.416
  165SOL  OW     493   0.166   3.831   2.638
  165SOL  HW1    494   0.242   3.815   2.575
  165SOL  HW2    495   0.198   3.819   2.732
  166SOL  OW     496   0.158   3.841   2.933
  166SOL  HW1    497   0.072   3.809   2.973
  166SOL  HW2    498   0.141   3.875   2.841
  167SOL  OW     499   0.143   3.847   3.250
  167SOL  HW1    500   0.227   3.809   3.211
  167SOL  HW2    501   0.160   3.939   3.284
  168SOL  OW     502   0.185   3.880   3.539
  168SOL  HW1    503   0.091   3.865   3.508
  168SOL  HW2    504   0.196   3.844   3.631
  169SOL  OW     505   0.155   3.870   3.831
  169SOL  HW1    506   0.219   3.834   3.899
  169SOL  HW2    507   0.206   3.916   3.759
  170SOL  OW     508   0.489   0.153   0.123
  170SOL  HW1    509   0.563   0.103   0.080
  170SOL  HW2    510   0.437   0.202   0.053
  171SOL  OW     511   0.427   0.181   0.426
  171SOL  HW1    512   0.477   0.259   0.465
  171SOL  HW2    513   0.492   0.108   0.403
  172SOL  OW     514   0.444   0.141   0.743
  172SOL  HW1    515   0.417   0.085   0.664
  172SOL  HW2    516   0.518   0.202   0.717
  173SOL  OW     517   0.447   0.173   1.038
  173SOL  HW1    518   0.371   0.222   1.081
  173SOL  HW2    519   0.477   0.224   0.958
  174SOL  OW     520   0.488   0.182   1.374
  174SOL  HW1    521   0.436   0.125   1.312
  174SOL  HW2    522   0.510   0.130   1.457
  175SOL  OW     523   0.434   0.162   1.662
  175SOL  HW1    524   0.355   0.224   1.658
  175SOL  HW2    525   0.495   0.190   1.736
  176SOL  OW     526   0.451   0.191   2.040
  176SOL  HW1    527   0.458   0.214   2.137
  176SOL  HW2    528   0.515   0.246   1.987
  177SOL  OW     529   0.483   0.139   2.323
  177SOL  HW1    530   0.389   0.105   2.314
  177SOL  HW2    531   0.485   0.238   2.308
  178SOL  OW     532   0.478   0.145   2.627
  178SOL  HW1    533   0.463   0.169   2.723
  178SOL  HW2    534   0.471   0.046   2.616
  179SOL  OW     535   0.422   0.131   2.925
  179SOL  HW1    536   0.343   0.070   2.923
  179SOL  HW2    537   0.501   0.083   2.885
  180SOL  OW     538   0.435   0.127   3.258
  180SOL  HW1    539   0.338   0.152   3.258
  180SOL  HW2    540   0.446   0.039   3.212
  181SOL  OW     541   0.501   0.158   3.566
  181SOL  HW1    542   0.479   0.255   3.549
  181SOL  HW2    543   0.455   0.101   3.497
  182SOL  OW     544   0.501   0.125   3.842
  182SOL  HW1    545   0.511   0.187   3.920
  182SOL  HW2    546   0.591   0.103   3.805
  183SOL  OW     547   0.453   0.428   0.174
  183SOL  HW1    548   0.481   0.470   0.260
  183SOL  HW2    549   0.529   0.374   0.137
  184SOL  OW     550   0.456   0.459   0.434
  184SOL  HW1    551   0.490   0.539   0.385
  184SOL  HW2    552   0.472   0.471   0.532
  185SOL  OW     553   0.436   0.494   0.733
  185SOL  HW1    554   0.480   0.406   0.716
  185SOL  HW2    555   0.438   0.515   0.831
  186SOL  OW     556   0.440   0.445   1.076
  186SOL  HW1    557   0.524   0.484   1.038
  186SOL  HW2    558   0.440   0.458   1.175
  187SOL  OW     559   0.468   0.461   1.351
  187SOL  HW1    560   0.435   0.520   1.277
  187SOL  HW2    561   0.434   0.495   1.439
  188SOL  OW     562   0.441   0.489   1.703
  188SOL  HW1    563   0.470   0.420   1.637
  188SOL  HW2    564   0.411   0.444   1.788
  189SOL  OW     565   0.473   0.475   2.021
  189SOL  HW1    566   0.414   0.399   2.046
  189SOL  HW2    567   0.452   0.554   2.078
  190SOL  OW     568   0.426   0.451   2.311
  190SOL  HW1    569   0.415   0.380   2.241
  190SOL  HW2    570   0.517   0.491   2.304
  191SOL  OW     571   0.449   0.489   2.614
  191SOL  HW1    572   0.447   0.561   2.545
  191SOL  HW2    573   0.486   0.525   2.699
  192SOL  OW     574   0.483   0.490   2.923
  192SOL  HW1    575   0.450   0.457   2.835
  192SOL  HW2    576   0.469   0.419   2.993
  193SOL  OW     577   0.494   0.469   3.259
  193SOL  HW1    578   0.575   0.526   3.274
  193SOL  HW2    579   0.523   0.373   3.252
  194SOL  OW     580   0.449   0.461   3.541
  194SOL  HW1    581   0.455   0.526   3.465
  194SOL  HW2    582   0.440   0.511   3.627
  195SOL  OW     583   0.430   0.453   3.880
  195SOL  HW1    584   0.336   0.421   3.866
  195SOL  HW2    585   0.434   0.551   3.860
  196SOL  OW     586   0.472   0.743   0.141
  196SOL  HW1    587   0.562   0.750   0.183
  196SOL  HW2    588   0.406   0.709   0.208
  197SOL  OW     589   0.437   0.731   0.496
  197SOL  HW1    590   0.530   0.694   0.496
  197SOL  HW2    591   0.434   0.814   0.440
  198SOL  OW     592   0.457   0.754   0.777
  198SOL  HW1    593   0.370   0.709   0.793
  198SOL  HW2    594   0.442   0.840   0.728
  199SOL  OW     595   0.422   0.751   1.093
  199SOL  HW1    596   0.502   0.800   1.129
  199SOL  HW2    597   0.401   0.786   1.002
  200SOL  OW     598   0.472   0.808   1.394
  200SOL  HW1    599   0.481   0.708   1.400
  200SOL  HW2    600   0.557   0.850   1.425
  201SOL  OW     601   0.460   0.790   1.725
  201SOL  HW1    602   0.527   0.717   1.735
  201SOL  HW2    603   0.506   0.879   1.727
  202SOL  OW     604   0.479   0.806   2.023
  202SOL  HW1    605   0.525   0.762   2.100
  202SOL  HW2    606   0.388   0.837   2.051
  203SOL  OW     607   0.491   0.738   2.326
  203SOL  HW1    608   0.413   0.695   2.280
  203SOL  HW2    609   0.498   0.703   2.420
  204SOL  OW     610   0.457   0.773   2.628
  204SOL  HW1    611   0.439   0.871   2.612
  204SOL  HW2    612   0.553   0.754   2.607
  205SOL  OW     613   0.499   0.808   2.906
  205SOL  HW1    614   0.428   0.769   2.964
  205SOL  HW2    615   0.558   0.735   2.872
  206SOL  OW     616   0.480   0.789   3.218
  206SOL  HW1    617   0.420   0.865   3.194
  206SOL  HW2    618   0.528   0.757   3.137
  207SOL  OW     619   0.431   0.733   3.561
  207SOL  HW1    620   0.376   0.762   3.483
  207SOL  HW2    621   0.406   0.785   3.642
  208SOL  OW     622   0.461   0.808   3.843
  208SOL  HW1    623   0.383   0.820   3.782
  208SOL  HW2    624   0.444   0.858   3.928
  209SOL  OW     625   0.500   1.070   0.177
  209SOL  HW1    626   0.519   0.986   0.126
  209SOL  HW2    627   0.525   1.056   0.273
  210SOL  OW     628   0.428   1.081   0.486
  210SOL  HW1    629   0.518   1.114   0.514
  210SOL  HW2    630   0.429   1.063   0.387
  211SOL  OW     631   0.496   1.103   0.732
  211SOL  HW1    632   0.565   1.136   0.796
  211SOL  HW2    633   0.536   1.032   0.674
  212SOL  OW     634   0.451   1.041   1.046
  212SOL  HW1    635   0.369   0.998   1.008
  212SOL  HW2    636   0.474   1.122   0.992
  213SOL  OW     637   0.476   1.094   1.407
  213SOL  HW1    638   0.479   1.185   1.366
  213SOL  HW2    639   0.554   1.041   1.376
  214SOL  OW     640   0.491   1.096   1.716
  214SOL  HW1    641   0.568   1.151   1.748
  214SOL  HW2    642   0.504   1.072   1.620
  215SOL  OW     643   0.425   1.056   2.010
  215SOL  HW1    644   0.466   1.119   1.944
  215SOL  HW2    645   0.465   1.072   2.100
  216SOL  OW     646   0.490   1.037   2.309
  216SOL  HW1    647   0.584   1.012   2.332
  216SOL  HW2    648   0.480   1.137   2.315
  217SOL  OW     649   0.476   1.039   2.607
  217SOL  HW1    650   0.426   1.030   2.694
  217SOL  HW2    651   0.431   0.984   2.537
  218SOL  OW     652   0.493   1.091   2.902
  218SOL  HW1    653   0.484   1.177   2.953
  218SOL  HW2    654   0.417   1.030   2.926
  219SOL  OW     655   0.490   1.065   3.259
  219SOL  HW1    656   0.518   1.083   3.353
  219SOL  HW2    657   0.455   0.971   3.253
  220SOL  OW     658   0.445   1.084   3.530
  220SOL  HW1    659   0.369   1.148   3.525
  220SOL  HW2    660   0.412   0.994   3.559
  221SOL  OW     661   0.444   1.108   3.821
  221SOL  HW1    662   0.499   1.191   3.825
  221SOL  HW2    663   0.381   1.106   3.899
  222SOL  OW     664   0.428   1.372   0.171
  222SOL  HW1    665   0.492   1.437   0.130
  222SOL  HW2    666   0.353   1.355   0.108
  223SOL  OW     667   0.486   1.425   0.445
  223SOL  HW1    668   0.528   1.347   0.493
  223SOL  HW2    669   0.387   1.414   0.446
  224SOL  OW     670   0.454   1.356   0.775
  224SOL  HW1    671   0.356   1.364   0.795
  224SOL  HW2    672   0.494   1.282   0.831
  225SOL  OW     673   0.501   1.401   1.085
  225SOL  HW1    674   0.585   1.358   1.119
  225SOL  HW2    675   0.434   1.330   1.065
  226SOL  OW     676   0.453   1.418   1.384
  226SOL  HW1    677   0.483   1.509   1.358
  226SOL  HW2    678   0.523   1.374   1.440
  227SOL  OW     679   0.432   1.374   1.658
  227SOL  HW1    680   0.441   1.472   1.671
  227SOL  HW2    681   0.486   1.325   1.727
  228SOL  OW     682   0.438   1.346   1.996
  228SOL  HW1    683   0.419   1.335   1.899
  228SOL  HW2    684   0.470   1.259   2.034
  229SOL  OW     685   0.472   1.372   2.301
  229SOL  HW1    686   0.429   1.415   2.222
  229SOL  HW2    687   0.403   1.324   2.355
  230SOL  OW     688   0.498   1.405   2.619
  230SOL  HW1    689   0.453   1.483   2.576
  230SOL  HW2    690   0.478   1.404   2.717
  231SOL  OW     691   0.444   1.416   2.902
  231SOL  HW1    692   0.534   1.373   2.907
  231SOL  HW2    693   0.398   1.387   2.818
  232SOL  OW     694   0.448   1.417   3.233
  232SOL  HW1    695   0.429   1.319   3.237
  232SOL  HW2    696   0.439   1.456   3.325
  233SOL  OW     697   0.481   1.392   3.551
  233SOL  HW1    698   0.535   1.379   3.634
  233SOL  HW2    699   0.503   1.320   3.485
  234SOL  OW     700   0.445   1.364   3.832
  234SOL  HW1    701   0.432   1.404   3.742
  234SOL  HW2    702   0.534   1.393   3.869
  235SOL  OW     703   0.434   1.722   0.137
  235SOL  HW1    704   0.529   1.751   0.145
  235SOL  HW2    705   0.426   1.626   0.161
  236SOL  OW     706   0.466   1.716   0.484
  236SOL  HW1    707   0.446   1.650   0.412
  236SOL  HW2    708   0.429   1.805   0.460
  237SOL  OW     709   0.457   1.690   0.809
  237SOL  HW1    710   0.444   1.757   0.735
  237SOL  HW2    711   0.380   1.696   0.872
  238SOL  OW     712   0.476   1.717   1.109
  238SOL  HW1    713   0.378   1.731   1.091
  238SOL  HW2    714   0.493   1.620   1.122
  239SOL  OW     715   0.485   1.667   1.390
  239SOL  HW1    716   0.455   1.636   1.299
  239SOL  HW2    717   0.531   1.755   1.381
  240SOL  OW     718   0.430   1.705   1.729
  240SOL  HW1    719   0.435   1.613   1.769
  240SOL  HW2    720   0.505   1.717   1.664
  241SOL  OW     721   0.463   1.687   1.963
  241SOL  HW1    722   0.519   1.636   1.898
  241SOL  HW2    723   0.517   1.759   2.006
  242SOL  OW     724   0.498   1.661   2.271
  242SOL  HW1    725   0.482   1.714   2.188
  242SOL  HW2    726   0.596   1.640   2.278
  243SOL  OW     727   0.441   1.658   2.612
  243SOL  HW1    728   0.392   1.602   2.679
  243SOL  HW2    729   0.469   1.600   2.535
  244SOL  OW     730   0.463   1.677   2.887
  244SOL  HW1    731   0.422   1.593   2.853
  244SOL  HW2    732   0.516   1.720   2.814
  245SOL  OW     733   0.430   1.683   3.196
  245SOL  HW1    734   0.379   1.685   3.281
  245SOL  HW2    735   0.439   1.589   3.163
  246SOL  OW     736   0.477   1.669   3.523
  246SOL  HW1    737   0.450   1.604   3.594
  246SOL  HW2    738   0.482   1.621   3.435
  247SOL  OW     739   0.453   1.686   3.806
  247SOL  HW1    740   0.405   1.728   3.729
  247SOL  HW2    741   0.543   1.728   3.817
  248SOL  OW     742   0.431   2.029   0.114
  248SOL  HW1    743   0.500   2.006   0.182
  248SOL  HW2    744   0.445   2.123   0.082
  249SOL  OW     745   0.462   1.999   0.448
  249SOL  HW1    746   0.365   2.003   0.470
  249SOL  HW2    747   0.496   1.905   0.459
  250SOL  OW     748   0.456   2.022   0.797
  250SOL  HW1    749   0.443   1.929   0.829
  250SOL  HW2    750   0.520   2.070   0.857
  251SOL  OW     751   0.442   1.986   1.056
  251SOL  HW1    752   0.442   2.065   1.118
  251SOL  HW2    753   0.516   1.924   1.082
  252SOL  OW     754   0.460   2.015   1.363
  252SOL  HW1    755   0.525   1.995   1.436
  252SOL  HW2    756   0.500   2.079   1.298
  253SOL  OW     757   0.448   2.034   1.656
  253SOL  HW1    758   0.404   2.121   1.681
  253SOL  HW2    759   0.507   2.049   1.576
  254SOL  OW     760   0.458   2.017   1.972
  254SOL  HW1    761   0.540   2.010   1.915
  254SOL  HW2    762   0.396   1.942   1.950
  255SOL  OW     763   0.425   1.971   2.341
  255SOL  HW1    764   0.453   2.051   2.394
  255SOL  HW2    765   0.345   1.994   2.286
  256SOL  OW     766   0.422   1.975   2.578
  256SOL  HW1    767   0.331   2.013   2.593
  256SOL  HW2    768   0.436   1.958   2.480
  257SOL  OW     769   0.430   2.010   2.902
  257SOL  HW1    770   0.380   2.031   2.819
  257SOL  HW2    771   0.385   2.052   2.981
  258SOL  OW     772   0.467   2.007   3.259
  258SOL  HW1    773   0.496   1.991   3.353
  258SOL  HW2    774   0.385   1.953   3.239
  259SOL  OW     775   0.422   2.028   3.548
  259SOL  HW1    776   0.431   2.045   3.450
  259SOL  HW2    777   0.460   1.938   3.570
  260SOL  OW     778   0.435   2.022   3.875
  260SOL  HW1    779   0.432   2.065   3.965
  260SOL  HW2    780   0.406   1.926   3.883
  261SOL  OW     781   0.442   2.341   0.150
  261SOL  HW1    782   0.408   2.277   0.081
  261SOL  HW2    783   0.378   2.343   0.227
  262SOL  OW     784   0.470   2.346   0.450
  262SOL  HW1    785   0.381   2.390   0.437
  262SOL  HW2    786   0.534   2.380   0.382
  263SOL  OW     787   0.487   2.293   0.793
  263SOL  HW1    788   0.422   2.241   0.850
  263SOL  HW2    789   0.521   2.235   0.719
  264SOL  OW     790   0.470   2.285   1.070
  264SOL  HW1    791   0.461   2.376   1.029
  264SOL  HW2    792   0.566   2.264   1.083
  265SOL  OW     793   0.447   2.274   1.347
  265SOL  HW1    794   0.457   2.303   1.252
  265SOL  HW2    795   0.466   2.176   1.354
  266SOL  OW     796   0.449   2.269   1.666
  266SOL  HW1    797   0.358   2.294   1.634
  266SOL  HW2    798   0.517   2.318   1.611
  267SOL  OW     799   0.480   2.324   2.019
  267SOL  HW1    800   0.546   2.396   1.998
  267SOL  HW2    801   0.513   2.236   1.985
  268SOL  OW     802   0.447   2.339   2.315
  268SOL  HW1    803   0.537   2.371   2.286
  268SOL  HW2    804   0.456   2.286   2.399
  269SOL  OW     805   0.432   2.279   2.631
  269SOL  HW1    806   0.361   2.242   2.690
  269SOL  HW2    807   0.435   2.226   2.546
  270SOL  OW     808   0.435   2.308   2.962
  270SOL  HW1    809   0.356   2.249   2.978
  270SOL  HW2    810   0.515   2.270   3.010
  271SOL  OW     811   0.422   2.269   3.270
  271SOL  HW1    812   0.475   2.189   3.242
  271SOL  HW2    813   0.476   2.352   3.257
  272SOL  OW     814   0.468   2.278   3.570
  272SOL  HW1    815   0.394   2.251   3.509
  272SOL  HW2    816   0.536   2.331   3.519
  273SOL  OW     817   0.492   2.311   3.856
  273SOL  HW1    818   0.455   2.340   3.944
  273SOL  HW2    819   0.477   2.383   3.788
  274SOL  OW     820   0.443   2.579   0.161
  274SOL  HW1    821   0.421   2.510   0.229
  274SOL  HW2    822   0.365   2.640   0.148
  275SOL  OW     823   0.445   2.628   0.488
  275SOL  HW1    824   0.367   2.669   0.440
  275SOL  HW2    825   0.461   2.679   0.573
  276SOL  OW     826   0.423   2.623   0.748
  276SOL  HW1    827   0.424   2.540   0.804
  276SOL  HW2    828   0.495   2.685   0.779
  277SOL  OW     829   0.491   2.596   1.086
  277SOL  HW1    830   0.568   2.531   1.088
  277SOL  HW2    831   0.455   2.602   0.993
  278SOL  OW     832   0.466   2.607   1.399
  278SOL  HW1    833   0.522   2.618   1.317
  278SOL  HW2    834   0.523   2.620   1.480
  279SOL  OW     835   0.480   2.621   1.713
  279SOL  HW1    836   0.442   2.683   1.782
  279SOL  HW2    837   0.535   2.551   1.758
  280SOL  OW     838   0.500   2.609   2.001
  280SOL  HW1    839   0.414   2.659   2.014
  280SOL  HW2    840   0.551   2.607   2.087
  281SOL  OW     841   0.423   2.639   2.309
  281SOL  HW1    842   0.369   2.611   2.389
  281SOL  HW2    843   0.392   2.729   2.279
  282SOL  OW     844   0.454   2.583   2.647
  282SOL  HW1    845   0.527   2.524   2.682
  282SOL  HW2    846   0.388   2.527   2.596
  283SOL  OW     847   0.453   2.630   2.895
  283SOL  HW1    848   0.429   2.701   2.829
  283SOL  HW2    849   0.553   2.619   2.897
  284SOL  OW     850   0.498   2.590   3.207
  284SOL  HW1    851   0.420   2.533   3.182
  284SOL  HW2    852   0.516   2.582   3.305
  285SOL  OW     853   0.490   2.648   3.515
  285SOL  HW1    854   0.434   2.631   3.434
  285SOL  HW2    855   0.587   2.638   3.492
  286SOL  OW     856   0.459   2.634   3.876
  286SOL  HW1    857   0.463   2.734   3.875
  286SOL  HW2    858   0.368   2.604   3.848
  287SOL  OW     859   0.452   2.924   0.173
  287SOL  HW1    860   0.490   3.010   0.207
  287SOL  HW2    861   0.421   2.937   0.079
  288SOL  OW     862   0.480   2.946   0.467
  288SOL  HW1    863   0.442   3.037   0.457
  288SOL  HW2    864   0.574   2.952   0.501
  289SOL  OW     865   0.430   2.955   0.798
  289SOL  HW1    866   0.381   3.033   0.757
  289SOL  HW2    867   0.454   2.978   0.893
  290SOL  OW     868   0.485   2.891   1.053
  290SOL  HW1    869   0.458   2.799   1.080
  290SOL  HW2    870   0.585   2.900   1.062
  291SOL  OW     871   0.481   2.885   1.423
  291SOL  HW1    872   0.429   2.837   1.352
  291SOL  HW2    873   0.514   2.972   1.387
  292SOL  OW     874   0.452   2.941   1.723
  292SOL  HW1    875   0.445   2.853   1.675
  292SOL  HW2    876   0.455   3.015   1.657
  293SOL  OW     877   0.453   2.909   2.009
  293SOL  HW1    878   0.492   2.817   2.002
  293SOL  HW2    879   0.501   2.960   2.080
  294SOL  OW     880   0.468   2.916   2.316
  294SOL  HW1    881   0.450   2.870   2.403
  294SOL  HW2    882   0.567   2.922   2.302
  295SOL  OW     883   0.496   2.920   2.591
  295SOL  HW1    884   0.588   2.953   2.567
  295SOL  HW2    885   0.432   2.997   2.589
  296SOL  OW     886   0.452   2.915   2.894
  296SOL  HW1    887   0.532   2.973   2.901
  296SOL  HW2    888   0.384   2.958   2.834
  297SOL  OW     889   0.435   2.938   3.218
  297SOL  HW1    890   0.462   2.851   3.177
  297SOL  HW2    891   0.344   2.928   3.259
  298SOL  OW     892   0.498   2.903   3.506
  298SOL  HW1    893   0.517   2.916   3.604
  298SOL  HW2    894   0.449   2.982   3.471
  299SOL  OW     895   0.482   2.954   3.828
  299SOL  HW1    896   0.448   2.861   3.810
  299SOL  HW2    897   0.417   3.020   3.792
  300SOL  OW     898   0.438   3.206   0.156
  300SOL  HW1    899   0.471   3.276   0.093
  300SOL  HW2    900   0.432   3.118   0.108
  301SOL  OW     901   0.459   3.212   0.425
  301SOL  HW1    902   0.523   3.189   0.499
  301SOL  HW2    903   0.395   3.135   0.412
  302SOL  OW     904   0.460   3.268   0.781
  302SOL  HW1    905   0.418   3.279   0.872
  302SOL  HW2    906   0.442   3.175   0.748
  303SOL  OW     907   0.461   3.200   1.057
  303SOL  HW1    908   0.380   3.249   1.087
  303SOL  HW2    909   0.541   3.259   1.064
  304SOL  OW     910   0.445   3.252   1.415
  304SOL  HW1    911   0.414   3.268   1.509
  304SOL  HW2    912   0.475   3.338   1.375
  305SOL  OW     913   0.494   3.270   1.731
  305SOL  HW1    914   0.522   3.326   1.654
  305SOL  HW2    915   0.505   3.321   1.816
  306SOL  OW     916   0.498   3.197   1.971
  306SOL  HW1    917   0.422   3.131   1.971
  306SOL  HW2    918   0.555   3.181   2.052
  307SOL  OW     919   0.446   3.235   2.275
  307SOL  HW1    920   0.483   3.327   2.265
  307SOL  HW2    921   0.352   3.240   2.310
  308SOL  OW     922   0.489   3.240   2.619
  308SOL  HW1    923   0.504   3.155   2.568
  308SOL  HW2    924   0.513   3.226   2.715
  309SOL  OW     925   0.435   3.211   2.896
  309SOL  HW1    926   0.466   3.306   2.890
  309SOL  HW2    927   0.398   3.193   2.987
  310SOL  OW     928   0.490   3.238   3.250
  310SOL  HW1    929   0.474   3.324   3.202
  310SOL  HW2    930   0.530   3.172   3.186
  311SOL  OW     931   0.445   3.220   3.531
  311SOL  HW1    932   0.471   3.291   3.597
  311SOL  HW2    933   0.511   3.219   3.456
  312SOL  OW     934   0.482   3.253   3.823
  312SOL  HW1    935   0.493   3.265   3.724
  312SOL  HW2    936   0.562   3.204   3.859
  313SOL  OW     937   0.497   3.508   0.186
  313SOL  HW1    938   0.430   3.460   0.242
  313SOL  HW2    939   0.453   3.541   0.102
  314SOL  OW     940   0.430   3.520   0.489
  314SOL  HW1    941   0.429   3.421   0.471
  314SOL  HW2    942   0.472   3.568   0.413
  315SOL  OW     943   0.436   3.532   0.765
  315SOL  HW1    944   0.525   3.508   0.728
  315SOL  HW2    945   0.377   3.451   0.764
  316SOL  OW     946   0.441   3.555   1.105
  316SOL  HW1    947   0.385   3.558   1.188
  316SOL  HW2    948   0.493   3.640   1.097
  317SOL  OW     949   0.492   3.526   1.387
  317SOL  HW1    950   0.476   3.463   1.463
  317SOL  HW2    951   0.559   3.594   1.414
  318SOL  OW     952   0.441   3.518   1.665
  318SOL  HW1    953   0.454   3.605   1.712
  318SOL  HW2    954   0.401   3.452   1.728
  319SOL  OW     955   0.497   3.570   2.022
  319SOL  HW1    956   0.523   3.661   2.053
  319SOL  HW2    957   0.579   3.517   1.998
  320SOL  OW     958   0.463   3.538   2.310
  320SOL  HW1    959   0.481   3.611   2.244
  320SOL  HW2    960   0.458   3.450   2.262
  321SOL  OW     961   0.464   3.533   2.586
  321SOL  HW1    962   0.382   3.561   2.636
  321SOL  HW2    963   0.453   3.556   2.489
  322SOL  OW     964   0.432   3.575   2.922
  322SOL  HW1    965   0.473   3.583   3.012
  322SOL  HW2    966   0.333   3.591   2.928
  323SOL  OW     967   0.498   3.512   3.235
  323SOL  HW1    968   0.539   3.603   3.240
  323SOL  HW2    969   0.530   3.456   3.312
  324SOL  OW     970   0.438   3.519   3.501
  324SOL  HW1    971   0.450   3.423   3.528
  324SOL  HW2    972   0.372   3.524   3.426
  325SOL  OW     973   0.431   3.572   3.832
  325SOL  HW1    974   0.386   3.623   3.759
  325SOL  HW2    975   0.515   3.619   3.858
  326SOL  OW     976   0.470   3.843   0.146
  326SOL  HW1    977   0.552   3.793   0.118
  326SOL  HW2    978   0.414   3.786   0.205
  327SOL  OW     979   0.464   3.821   0.501
  327SOL  HW1    980   0.532   3.748   0.494
  327SOL  HW2    981   0.380   3.785   0.542
  328SOL  OW     982   0.487   3.865   0.767
  328SOL  HW1    983   0.585   3.852   0.755
  328SOL  HW2    984   0.439   3.780   0.746
  329SOL  OW     985   0.434   3.880   1.064
  329SOL  HW1    986   0.511   3.848   1.119
  329SOL  HW2    987   0.349   3.844   1.102
  330SOL  OW     988   0.426   3.834   1.408
  330SOL  HW1    989   0.430   3.756   1.471
  330SOL  HW2    990   0.434   3.800   1.314
  331SOL  OW     991   0.471   3.866   1.716
  331SOL  HW1    992   0.492   3.856   1.619
  331SOL  HW2    993   0.381   3.828   1.735
  332SOL  OW     994   0.438   3.880   1.995
  332SOL  HW1    995   0.368   3.931   2.044
  332SOL  HW2    996   0.472   3.935   1.918
  333SOL  OW     997   0.473   3.806   2.347
  333SOL  HW1    998   0.396   3.758   2.390
  333SOL  HW2    999   0.548   3.742   2.331
  334SOL  OW    1000   0.444   3.811   2.612
  334SOL  HW1   1001   0.487   3.901   2.616
  334SOL  HW2   1002   0.450   3.768   2.702
  335SOL  OW    1003   0.432   3.818   2.934
  335SOL  HW1   1004   0.392   3.735   2.896
  335SOL  HW2   1005   0.368   3.860   2.998
  336SOL  OW    1006   0.453   3.880   3.216
  336SOL  HW1   1007   0.506   3.826   3.282
  336SOL  HW2   1008   0.501   3.966   3.198
  337SOL  OW    1009   0.480   3.843   3.551
  337SOL  HW1   1010   0.406   3.806   3.608
  337SOL  HW2   1011   0.547   3.888   3.609
  338SOL  OW    1012   0.470   3.844   3.882
  338SOL  HW1   1013   0.399   3.903   3.842
  338SOL  HW2   1014   0.531   3.899   3.939
  339SOL  OW    1015   0.757   0.128   0.168
  339SOL  HW1   1016   0.829   0.092   0.227
  339SOL  HW2   1017   0.676   0.069   0.173
  340SOL  OW    1018   0.797   0.117   0.458
  340SOL  HW1   1019   0.882   0.169   0.454
  340SOL  HW2   1020   0.775   0.096   0.553
  341SOL  OW    1021   0.801   0.174   0.809
  341SOL  HW1   1022   0.764   0.246   0.867
  341SOL  HW2   1023   0.729   0.107   0.789
  342SOL  OW    1024   0.772   0.167   1.061
  342SOL  HW1   1025   0.788   0.151   1.159
  342SOL  HW2   1026   0.807   0.256   1.035
  343SOL  OW    1027   0.805   0.143   1.404
  343SOL  HW1   1028   0.712   0.134   1.369
  343SOL  HW2   1029   0.804   0.193   1.490
  344SOL  OW    1030   0.761   0.159   1.710
  344SOL  HW1   1031   0.758   0.228   1.782
  344SOL  HW2   1032   0.857   0.133   1.693
  345SOL  OW    1033   0.770   0.186   1.994
  345SOL  HW1   1034   0.867   0.205   2.011
  345SOL  HW2   1035   0.760   0.094   1.957
  346SOL  OW    1036   0.781   0.141   2.300
  346SOL  HW1   1037   0.850   0.102   2.361
  346SOL  HW2   1038   0.690   0.115   2.332
  347SOL  OW    1039   0.764   0.124   2.583
  347SOL  HW1   1040   0.701   0.113   2.506
  347SOL  HW2   1041   0.729   0.074   2.662
  348SOL  OW    1042   0.783   0.166   2.936
  348SOL  HW1   1043   0.797   0.090   2.999
  348SOL  HW2   1044   0.694   0.156   2.891
  349SOL  OW    1045   0.731   0.140   3.207
  349SOL  HW1   1046   0.809   0.084   3.181
  349SOL  HW2   1047   0.654   0.081   3.232
  350SOL  OW    1048   0.791   0.183   3.518
  350SOL  HW1   1049   0.693   0.201   3.519
  350SOL  HW2   1050   0.841   0.265   3.488
  351SOL  OW    1051   0.783   0.124   3.828
  351SOL  HW1   1052   0.749   0.113   3.735
  351SOL  HW2   1053   0.761   0.043   3.882
  352SOL  OW    1054   0.740   0.444   0.168
  352SOL  HW1   1055   0.653   0.396   0.167
  352SOL  HW2   1056   0.734   0.527   0.112
  353SOL  OW    1057   0.802   0.438   0.465
  353SOL  HW1   1058   0.838   0.440   0.371
  353SOL  HW2   1059   0.838   0.516   0.516
  354SOL  OW    1060   0.785   0.498   0.778
  354SOL  HW1   1061   0.715   0.554   0.734
  354SOL  HW2   1062   0.769   0.401   0.758
  355SOL  OW    1063   0.750   0.472   1.063
  355SOL  HW1   1064   0.756   0.472   0.963
  355SOL  HW2   1065   0.768   0.379   1.096
  356SOL  OW    1066   0.807   0.454   1.399
  356SOL  HW1   1067   0.809   0.401   1.484
  356SOL  HW2   1068   0.713   0.480   1.378
  357SOL  OW    1069   0.731   0.454   1.722
  357SOL  HW1   1070   0.636   0.481   1.709
  357SOL  HW2   1071   0.790   0.534   1.718
  358SOL  OW    1072   0.778   0.457   2.035
  358SOL  HW1   1073   0.773   0.400   2.117
  358SOL  HW2   1074   0.737   0.546   2.053
  359SOL  OW    1075   0.798   0.447   2.311
  359SOL  HW1   1076   0.855   0.446   2.393
  359SOL  HW2   1077   0.770   0.541   2.292
  360SOL  OW    1078   0.768   0.472   2.602
  360SOL  HW1   1079   0.671   0.451   2.599
  360SOL  HW2   1080   0.781   0.571   2.608
  361SOL  OW    1081   0.749   0.495   2.957
  361SOL  HW1   1082   0.707   0.441   3.031
  361SOL  HW2   1083   0.841   0.522   2.984
  362SOL  OW    1084   0.797   0.500   3.250
  362SOL  HW1   1085   0.815   0.550   3.335
  362SOL  HW2   1086   0.801   0.562   3.173
  363SOL  OW    1087   0.790   0.483   3.537
  363SOL  HW1   1088   0.859   0.421   3.577
  363SOL  HW2   1089   0.707   0.480   3.592
  364SOL  OW    1090   0.766   0.441   3.858
  364SOL  HW1   1091   0.687   0.396   3.900
  364SOL  HW2   1092   0.842   0.377   3.854
  365SOL  OW    1093   0.752   0.750   0.161
  365SOL  HW1   1094   0.817   0.746   0.084
  365SOL  HW2   1095   0.660   0.733   0.127
  366SOL  OW    1096   0.762   0.747   0.487
  366SOL  HW1   1097   0.820   0.780   0.561
  366SOL  HW2   1098   0.706   0.822   0.452
  367SOL  OW    1099   0.798   0.743   0.730
  367SOL  HW1   1100   0.888   0.727   0.689
  367SOL  HW2   1101   0.738   0.786   0.663
  368SOL  OW    1102   0.756   0.793   1.104
  368SOL  HW1   1103   0.806   0.872   1.140
  368SOL  HW2   1104   0.759   0.795   1.004
  369SOL  OW    1105   0.740   0.791   1.354
  369SOL  HW1   1106   0.692   0.795   1.266
  369SOL  HW2   1107   0.734   0.880   1.399
  370SOL  OW    1108   0.760   0.809   1.668
  370SOL  HW1   1109   0.824   0.802   1.745
  370SOL  HW2   1110   0.771   0.729   1.609
  371SOL  OW    1111   0.742   0.763   2.010
  371SOL  HW1   1112   0.781   0.835   1.952
  371SOL  HW2   1113   0.682   0.804   2.079
  372SOL  OW    1114   0.804   0.808   2.273
  372SOL  HW1   1115   0.798   0.873   2.348
  372SOL  HW2   1116   0.861   0.846   2.200
  373SOL  OW    1117   0.740   0.792   2.597
  373SOL  HW1   1118   0.789   0.820   2.514
  373SOL  HW2   1119   0.717   0.874   2.651
  374SOL  OW    1120   0.800   0.782   2.892
  374SOL  HW1   1121   0.878   0.778   2.955
  374SOL  HW2   1122   0.760   0.874   2.894
  375SOL  OW    1123   0.796   0.743   3.225
  375SOL  HW1   1124   0.864   0.816   3.219
  375SOL  HW2   1125   0.830   0.662   3.178
  376SOL  OW    1126   0.773   0.769   3.553
  376SOL  HW1   1127   0.740   0.861   3.531
  376SOL  HW2   1128   0.785   0.762   3.652
  377SOL  OW    1129   0.781   0.809   3.886
  377SOL  HW1   1130   0.735   0.837   3.802
  377SOL  HW2   1131   0.863   0.865   3.900
  378SOL  OW    1132   0.771   1.045   0.172
  378SOL  HW1   1133   0.833   1.021   0.098
  378SOL  HW2   1134   0.747   0.962   0.223
  379SOL  OW    1135   0.807   1.062   0.458
  379SOL  HW1   1136   0.876   1.135   0.467
  379SOL  HW2   1137   0.786   1.048   0.362
  380SOL  OW    1138   0.763   1.041   0.783
  380SOL  HW1   1139   0.804   1.064   0.694
  380SOL  HW2   1140   0.674   1.086   0.791
  381SOL  OW    1141   0.757   1.100   1.103
  381SOL  HW1   1142   0.784   1.177   1.161
  381SOL  HW2   1143   0.772   1.124   1.007
  382SOL  OW    1144   0.795   1.070   1.370
  382SOL  HW1   1145   0.757   1.058   1.279
  382SOL  HW2   1146   0.732   1.032   1.438
  383SOL  OW    1147   0.789   1.101   1.692
  383SOL  HW1   1148   0.881   1.127   1.662
  383SOL  HW2   1149   0.722   1.137   1.627
  384SOL  OW    1150   0.801   1.048   2.030
  384SOL  HW1   1151   0.765   1.098   1.951
  384SOL  HW2   1152   0.831   1.114   2.100
  385SOL  OW    1153   0.737   1.049   2.310
  385SOL  HW1   1154   0.639   1.027   2.310
  385SOL  HW2   1155   0.784   0.991   2.377
  386SOL  OW    1156   0.735   1.041   2.575
  386SOL  HW1   1157   0.745   1.077   2.668
  386SOL  HW2   1158   0.696   1.112   2.516
  387SOL  OW    1159   0.764   1.099   2.886
  387SOL  HW1   1160   0.777   1.114   2.984
  387SOL  HW2   1161   0.676   1.053   2.870
  388SOL  OW    1162   0.781   1.103   3.204
  388SOL  HW1   1163   0.713   1.132   3.271
  388SOL  HW2   1164   0.802   1.006   3.218
  389SOL  OW    1165   0.741   1.106   3.564
  389SOL  HW1   1166   0.782   1.022   3.530
  389SOL  HW2   1167   0.659   1.127   3.511
  390SOL  OW    1168   0.772   1.102   3.814
  390SOL  HW1   1169   0.840   1.091   3.886
  390SOL  HW2   1170   0.798   1.180   3.756
  391SOL  OW    1171   0.761   1.404   0.134
  391SOL  HW1   1172   0.714   1.326   0.176
  391SOL  HW2   1173   0.772   1.388   0.036
  392SOL  OW    1174   0.789   1.385   0.482
  392SOL  HW1   1175   0.852   1.345   0.414
  392SOL  HW2   1176   0.716   1.434   0.434
  393SOL  OW    1177   0.766   1.374   0.747
  393SOL  HW1   1178   0.850   1.418   0.779
  393SOL  HW2   1179   0.707   1.354   0.824
  394SOL  OW    1180   0.746   1.405   1.046
  394SOL  HW1   1181   0.834   1.362   1.024
  394SOL  HW2   1182   0.680   1.384   0.974
  395SOL  OW    1183   0.736   1.359   1.359
  395SOL  HW1   1184   0.654   1.342   1.413
  395SOL  HW2   1185   0.787   1.273   1.347
  396SOL  OW    1186   0.795   1.376   1.732
  396SOL  HW1   1187   0.784   1.406   1.826
  396SOL  HW2   1188   0.880   1.324   1.723
  397SOL  OW    1189   0.740   1.397   1.996
  397SOL  HW1   1190   0.739   1.421   2.093
  397SOL  HW2   1191   0.647   1.399   1.960
  398SOL  OW    1192   0.761   1.415   2.346
  398SOL  HW1   1193   0.817   1.496   2.361
  398SOL  HW2   1194   0.701   1.430   2.267
  399SOL  OW    1195   0.799   1.360   2.593
  399SOL  HW1   1196   0.827   1.273   2.553
  399SOL  HW2   1197   0.748   1.343   2.677
  400SOL  OW    1198   0.782   1.368   2.942
  400SOL  HW1   1199   0.798   1.380   2.844
  400SOL  HW2   1200   0.741   1.451   2.979
  401SOL  OW    1201   0.775   1.389   3.257
  401SOL  HW1   1202   0.844   1.461   3.252
  401SOL  HW2   1203   0.705   1.405   3.187
  402SOL  OW    1204   0.786   1.347   3.502
  402SOL  HW1   1205   0.774   1.352   3.602
  402SOL  HW2   1206   0.721   1.408   3.458
  403SOL  OW    1207   0.777   1.384   3.827
  403SOL  HW1   1208   0.717   1.337   3.892
  403SOL  HW2   1209   0.759   1.350   3.735
  404SOL  OW    1210   0.763   1.713   0.180
  404SOL  HW1   1211   0.752   1.664   0.267
  404SOL  HW2   1212   0.860   1.731   0.164
  405SOL  OW    1213   0.774   1.683   0.443
  405SOL  HW1   1214   0.807   1.686   0.349
  405SOL  HW2   1215   0.752   1.776   0.474
  406SOL  OW    1216   0.771   1.677   0.774
  406SOL  HW1   1217   0.741   1.593   0.730
  406SOL  HW2   1218   0.694   1.741   0.782
  407SOL  OW    1219   0.783   1.658   1.037
  407SOL  HW1   1220   0.717   1.637   0.965
  407SOL  HW2   1221   0.865   1.601   1.024
  408SOL  OW    1222   0.746   1.724   1.396
  408SOL  HW1   1223   0.735   1.808   1.344
  408SOL  HW2   1224   0.662   1.670   1.391
  409SOL  OW    1225   0.743   1.724   1.690
  409SOL  HW1   1226   0.820   1.711   1.628
  409SOL  HW2   1227   0.770   1.784   1.764
  410SOL  OW    1228   0.767   1.727   1.965
  410SOL  HW1   1229   0.711   1.684   1.894
  410SOL  HW2   1230   0.805   1.656   2.025
  411SOL  OW    1231   0.746   1.699   2.283
  411SOL  HW1   1232   0.708   1.774   2.338
  411SOL  HW2   1233   0.734   1.720   2.186
  412SOL  OW    1234   0.784   1.669   2.583
  412SOL  HW1   1235   0.804   1.667   2.485
  412SOL  HW2   1236   0.756   1.578   2.614
  413SOL  OW    1237   0.746   1.686   2.897
  413SOL  HW1   1238   0.765   1.712   2.992
  413SOL  HW2   1239   0.799   1.605   2.873
  414SOL  OW    1240   0.740   1.721   3.216
  414SOL  HW1   1241   0.800   1.671   3.279
  414SOL  HW2   1242   0.658   1.667   3.197
  415SOL  OW    1243   0.758   1.657   3.527
  415SOL  HW1   1244   0.734   1.711   3.607
  415SOL  HW2   1245   0.677   1.642   3.471
  416SOL  OW    1246   0.750   1.701   3.823
  416SOL  HW1   1247   0.838   1.703   3.775
  416SOL  HW2   1248   0.766   1.707   3.921
  417SOL  OW    1249   0.800   2.034   0.122
  417SOL  HW1   1250   0.784   2.015   0.219
  417SOL  HW2   1251   0.883   2.089   0.112
  418SOL  OW    1252   0.738   1.969   0.471
  418SOL  HW1   1253   0.815   1.954   0.532
  418SOL  HW2   1254   0.708   1.882   0.433
  419SOL  OW    1255   0.739   2.028   0.790
  419SOL  HW1   1256   0.798   2.019   0.870
  419SOL  HW2   1257   0.794   2.056   0.711
  420SOL  OW    1258   0.795   2.002   1.117
  420SOL  HW1   1259   0.839   1.912   1.118
  420SOL  HW2   1260   0.854   2.069   1.162
  421SOL  OW    1261   0.733   1.992   1.371
  421SOL  HW1   1262   0.642   2.031   1.388
  421SOL  HW2   1263   0.727   1.892   1.372
  422SOL  OW    1264   0.805   2.006   1.717
  422SOL  HW1   1265   0.805   2.033   1.813
  422SOL  HW2   1266   0.899   1.986   1.688
  423SOL  OW    1267   0.743   2.038   2.000
  423SOL  HW1   1268   0.840   2.029   1.980
  423SOL  HW2   1269   0.730   2.043   2.099
  424SOL  OW    1270   0.769   2.038   2.298
  424SOL  HW1   1271   0.676   2.059   2.268
  424SOL  HW2   1272   0.833   2.051   2.222
  425SOL  OW    1273   0.761   2.007   2.586
  425SOL  HW1   1274   0.841   2.048   2.630
  425SOL  HW2   1275   0.681   2.066   2.598
  426SOL  OW    1276   0.755   1.975   2.891
  426SOL  HW1   1277   0.688   1.951   2.821
  426SOL  HW2   1278   0.832   1.911   2.888
  427SOL  OW    1279   0.799   2.007   3.219
  427SOL  HW1   1280   0.733   1.947   3.173
  427SOL  HW2   1281   0.825   2.081   3.158
  428SOL  OW    1282   0.762   1.995   3.549
  428SOL  HW1   1283   0.782   1.917   3.489
  428SOL  HW2   1284   0.806   2.077   3.513
  429SOL  OW    1285   0.803   2.035   3.837
  429SOL  HW1   1286   0.869   1.988   3.778
  429SOL  HW2   1287   0.815   2.003   3.931
  430SOL  OW    1288   0.756   2.304   0.159
  430SOL  HW1   1289   0.752   2.352   0.247
  430SOL  HW2   1290   0.749   2.205   0.175
  431SOL  OW    1291   0.766   2.320   0.466
  431SOL  HW1   1292   0.751   2.290   0.372
  431SOL  HW2   1293   0.802   2.244   0.520
  432SOL  OW    1294   0.755   2.295   0.760
  432SOL  HW1   1295   0.761   2.215   0.818
  432SOL  HW2   1296   0.790   2.273   0.668
  433SOL  OW    1297   0.737   2.281   1.095
  433SOL  HW1   1298   0.808   2.222   1.056
  433SOL  HW2   1299   0.769   2.320   1.181
  434SOL  OW    1300   0.760   2.285   1.390
  434SOL  HW1   1301   0.699   2.263   1.465
  434SOL  HW2   1302   0.808   2.371   1.409
  435SOL  OW    1303   0.790   2.288   1.718
  435SOL  HW1   1304   0.795   2.228   1.639
  435SOL  HW2   1305   0.875   2.283   1.771
  436SOL  OW    1306   0.803   2.315   2.014
  436SOL  HW1   1307   0.729   2.286   1.953
  436SOL  HW2   1308   0.847   2.397   1.975
  437SOL  OW    1309   0.733   2.343   2.299
  437SOL  HW1   1310   0.790   2.302   2.228
  437SOL  HW2   1311   0.781   2.422   2.338
  438SOL  OW    1312   0.803   2.314   2.576
  438SOL  HW1   1313   0.856   2.229   2.573
  438SOL  HW2   1314   0.713   2.296   2.616
  439SOL  OW    1315   0.732   2.322   2.928
  439SOL  HW1   1316   0.815   2.330   2.872
  439SOL  HW2   1317   0.754   2.271   3.012
  440SOL  OW    1318   0.731   2.327   3.259
  440SOL  HW1   1319   0.647   2.376   3.236
  440SOL  HW2   1320   0.809   2.389   3.251
  441SOL  OW    1321   0.769   2.305   3.499
  441SOL  HW1   1322   0.841   2.320   3.431
  441SOL  HW2   1323   0.785   2.218   3.546
  442SOL  OW    1324   0.792   2.294   3.876
  442SOL  HW1   1325   0.802   2.203   3.917
  442SOL  HW2   1326   0.764   2.359   3.947
  443SOL  OW    1327   0.759   2.621   0.135
  443SOL  HW1   1328   0.689   2.599   0.203
  443SOL  HW2   1329   0.848   2.587   0.167
  444SOL  OW    1330   0.742   2.637   0.461
  444SOL  HW1   1331   0.691   2.635   0.376
  444SOL  HW2   1332   0.702   2.705   0.523
  445SOL  OW    1333   0.772   2.653   0.806
  445SOL  HW1   1334   0.752   2.630   0.902
  445SOL  HW2   1335   0.754   2.750   0.791
  446SOL  OW    1336   0.798   2.590   1.084
  446SOL  HW1   1337   0.883   2.642   1.080
  446SOL  HW2   1338   0.818   2.493   1.075
  447SOL  OW    1339   0.799   2.605   1.353
  447SOL  HW1   1340   0.788   2.691   1.303
  447SOL  HW2   1341   0.712   2.556   1.355
  448SOL  OW    1342   0.794   2.614   1.697
  448SOL  HW1   1343   0.744   2.584   1.617
  448SOL  HW2   1344   0.882   2.566   1.702
  449SOL  OW    1345   0.808   2.624   1.994
  449SOL  HW1   1346   0.892   2.666   2.028
  449SOL  HW2   1347   0.813   2.614   1.895
  450SOL  OW    1348   0.759   2.609   2.277
  450SOL  HW1   1349   0.805   2.640   2.360
  450SOL  HW2   1350   0.822   2.553   2.223
  451SOL  OW    1351   0.793   2.642   2.598
  451SOL  HW1   1352   0.888   2.617   2.613
  451SOL  HW2   1353   0.779   2.737   2.626
  452SOL  OW    1354   0.754   2.645   2.885
  452SOL  HW1   1355   0.673   2.630   2.827
  452SOL  HW2   1356   0.776   2.743   2.885
  453SOL  OW    1357   0.771   2.612   3.246
  453SOL  HW1   1358   0.730   2.675   3.180
  453SOL  HW2   1359   0.866   2.639   3.263
  454SOL  OW    1360   0.742   2.629   3.529
  454SOL  HW1   1361   0.651   2.616   3.490
  454SOL  HW2   1362   0.740   2.705   3.594
  455SOL  OW    1363   0.779   2.579   3.843
  455SOL  HW1   1364   0.779   2.480   3.828
  455SOL  HW2   1365   0.810   2.598   3.936
  456SOL  OW    1366   0.771   2.900   0.125
  456SOL  HW1   1367   0.787   2.998   0.141
  456SOL  HW2   1368   0.832   2.867   0.053
  457SOL  OW    1369   0.744   2.911   0.429
  457SOL  HW1   1370   0.704   2.820   0.445
  457SOL  HW2   1371   0.755   2.926   0.331
  458SOL  OW    1372   0.805   2.915   0.794
  458SOL  HW1   1373   0.768   2.883   0.881
  458SOL  HW2   1374   0.745   2.985   0.755
  459SOL  OW    1375   0.807   2.890   1.089
  459SOL  HW1   1376   0.771   2.823   1.024
  459SOL  HW2   1377   0.737   2.911   1.157
  460SOL  OW    1378   0.799   2.934   1.379
  460SOL  HW1   1379   0.736   2.934   1.301
  460SOL  HW2   1380   0.886   2.893   1.351
  461SOL  OW    1381   0.764   2.886   1.695
  461SOL  HW1   1382   0.858   2.918   1.705
  461SOL  HW2   1383   0.763   2.786   1.691
  462SOL  OW    1384   0.809   2.960   1.963
  462SOL  HW1   1385   0.728   2.900   1.968
  462SOL  HW2   1386   0.821   3.006   2.051
  463SOL  OW    1387   0.786   2.907   2.340
  463SOL  HW1   1388   0.709   2.916   2.403
  463SOL  HW2   1389   0.845   2.832   2.370
  464SOL  OW    1390   0.733   2.958   2.642
  464SOL  HW1   1391   0.712   3.053   2.666
  464SOL  HW2   1392   0.796   2.920   2.710
  465SOL  OW    1393   0.739   2.888   2.950
  465SOL  HW1   1394   0.761   2.877   3.047
  465SOL  HW2   1395   0.699   2.803   2.915
  466SOL  OW    1396   0.742   2.926   3.264
  466SOL  HW1   1397   0.673   2.856   3.284
  466SOL  HW2   1398   0.793   2.947   3.347
  467SOL  OW    1399   0.775   2.915   3.534
  467SOL  HW1   1400   0.775   2.817   3.513
  467SOL  HW2   1401   0.685   2.941   3.569
  468SOL  OW    1402   0.734   2.961   3.831
  468SOL  HW1   1403   0.809   2.987   3.892
  468SOL  HW2   1404   0.704   2.868   3.854
  469SOL  OW    1405   0.744   3.214   0.191
  469SOL  HW1   1406   0.827   3.170   0.156
  469SOL  HW2   1407   0.728   3.299   0.142
  470SOL  OW    1408   0.737   3.260   0.478
  470SOL  HW1   1409   0.780   3.179   0.518
  470SOL  HW2   1410   0.743   3.336   0.543
  471SOL  OW    1411   0.796   3.269   0.797
  471SOL  HW1   1412   0.826   3.174   0.783
  471SOL  HW2   1413   0.704   3.280   0.759
  472SOL  OW    1414   0.805   3.201   1.101
  472SOL  HW1   1415   0.731   3.268   1.103
  472SOL  HW2   1416   0.774   3.117   1.145
  473SOL  OW    1417   0.773   3.234   1.417
  473SOL  HW1   1418   0.680   3.269   1.424
  473SOL  HW2   1419   0.789   3.165   1.487
  474SOL  OW    1420   0.807   3.247   1.691
  474SOL  HW1   1421   0.754   3.173   1.651
  474SOL  HW2   1422   0.838   3.220   1.782
  475SOL  OW    1423   0.766   3.222   1.989
  475SOL  HW1   1424   0.829   3.281   1.939
  475SOL  HW2   1425   0.711   3.169   1.924
  476SOL  OW    1426   0.761   3.198   2.274
  476SOL  HW1   1427   0.735   3.236   2.363
  476SOL  HW2   1428   0.682   3.151   2.233
  477SOL  OW    1429   0.792   3.226   2.650
  477SOL  HW1   1430   0.729   3.299   2.679
  477SOL  HW2   1431   0.789   3.219   2.550
  478SOL  OW    1432   0.778   3.194   2.896
  478SOL  HW1   1433   0.758   3.126   2.966
  478SOL  HW2   1434   0.762   3.154   2.805
  479SOL  OW    1435   0.746   3.269   3.208
  479SOL  HW1   1436   0.759   3.306   3.116
  479SOL  HW2   1437   0.741   3.344   3.274
  480SOL  OW    1438   0.770   3.266   3.577
  480SOL  HW1   1439   0.689   3.219   3.544
  480SOL  HW2   1440   0.826   3.202   3.631
  481SOL  OW    1441   0.748   3.195   3.818
  481SOL  HW1   1442   0.807   3.200   3.899
  481SOL  HW2   1443   0.776   3.265   3.753
  482SOL  OW    1444   0.734   3.514   0.159
  482SOL  HW1   1445   0.661   3.500   0.225
  482SOL  HW2   1446   0.808   3.450   0.178
  483SOL  OW    1447   0.802   3.541   0.472
  483SOL  HW1   1448   0.758   3.517   0.385
  483SOL  HW2   1449   0.849   3.629   0.462
  484SOL  OW    1450   0.745   3.563   0.779
  484SOL  HW1   1451   0.805   3.580   0.701
  484SOL  HW2   1452   0.785   3.491   0.836
  485SOL  OW    1453   0.798   3.574   1.065
  485SOL  HW1   1454   0.768   3.542   1.155
  485SOL  HW2   1455   0.844   3.663   1.075
  486SOL  OW    1456   0.736   3.517   1.380
  486SOL  HW1   1457   0.713   3.601   1.427
  486SOL  HW2   1458   0.726   3.439   1.442
  487SOL  OW    1459   0.805   3.529   1.714
  487SOL  HW1   1460   0.768   3.542   1.622
  487SOL  HW2   1461   0.736   3.556   1.781
  488SOL  OW    1462   0.772   3.513   1.986
  488SOL  HW1   1463   0.800   3.417   1.980
  488SOL  HW2   1464   0.688   3.520   2.038
  489SOL  OW    1465   0.781   3.552   2.302
  489SOL  HW1   1466   0.781   3.605   2.387
  489SOL  HW2   1467   0.722   3.596   2.235
  490SOL  OW    1468   0.748   3.556   2.589
  490SOL  HW1   1469   0.676   3.626   2.591
  490SOL  HW2   1470   0.747   3.505   2.675
  491SOL  OW    1471   0.804   3.513   2.892
  491SOL  HW1   1472   0.869   3.510   2.815
  491SOL  HW2   1473   0.854   3.505   2.978
  492SOL  OW    1474   0.769   3.540   3.231
  492SOL  HW1   1475   0.791   3.443   3.234
  492SOL  HW2   1476   0.716   3.560   3.149
  493SOL  OW    1477   0.764   3.578   3.537
  493SOL  HW1   1478   0.711   3.646   3.487
  493SOL  HW2   1479   0.857   3.575   3.501
  494SOL  OW    1480   0.767   3.532   3.811
  494SOL  HW1   1481   0.781   3.584   3.896
  494SOL  HW2   1482   0.807   3.583   3.735
  495SOL  OW    1483   0.777   3.824   0.165
  495SOL  HW1   1484   0.857   3.807   0.222
  495SOL  HW2   1485   0.706   3.869   0.219
  496SOL  OW    1486   0.733   3.885   0.459
  496SOL  HW1   1487   0.817   3.845   0.420
  496SOL  HW2   1488   0.656   3.825   0.439
  497SOL  OW    1489   0.801   3.844   0.734
  497SOL  HW1   1490   0.739   3.833   0.657
  497SOL  HW2   1491   0.857   3.762   0.745
  498SOL  OW    1492   0.795   3.858   1.099
  498SOL  HW1   1493   0.868   3.842   1.166
  498SOL  HW2   1494   0.775   3.773   1.051
  499SOL  OW    1495   0.763   3.857   1.413
  499SOL  HW1   1496   0.812   3.838   1.498
  499SOL  HW2   1497   0.665   3.854   1.429
  500SOL  OW    1498   0.780   3.834   1.705
  500SOL  HW1   1499   0.843   3.911   1.701
  500SOL  HW2   1500   0.733   3.824   1.617
  501SOL  OW    1501   0.783   3.883   1.990
  501SOL  HW1   1502   0.877   3.871   1.958
  501SOL  HW2   1503   0.729   3.802   1.967
  502SOL  OW    1504   0.763   3.871   2.308
  502SOL  HW1   1505   0.836   3.879   2.376
  502SOL  HW2   1506   0.713   3.786   2.323
  503SOL  OW    1507   0.788   3.843   2.593
  503SOL  HW1   1508   0.705   3.883   2.553
  503SOL  HW2   1509   0.850   3.916   2.621
  504SOL  OW    1510   0.789   3.817   2.899
  504SOL  HW1   1511   0.781   3.819   2.799
  504SOL  HW2   1512   0.881   3.787   2.925
  505SOL  OW    1513   0.779   3.866   3.262
  505SOL  HW1   1514   0.720   3.794   3.298
  505SOL  HW2   1515   0.734   3.954   3.273
  506SOL  OW    1516   0.751   3.815   3.575
  506SOL  HW1   1517   0.830   3.754   3.579
  506SOL  HW2   1518   0.756   3.881   3.650
  507SOL  OW    1519   0.742   3.822   3.829
  507SOL  HW1   1520   0.694   3.894   3.880
  507SOL  HW2   1521   0.726   3.834   3.732
  508SOL  OW    1522   1.079   0.184   0.175
  508SOL  HW1   1523   1.125   0.142   0.253
  508SOL  HW2   1524   1.000   0.130   0.149
  509SOL  OW    1525   1.094   0.128   0.450
  509SOL  HW1   1526   1.039   0.102   0.529
  509SOL  HW2   1527   1.105   0.049   0.390
  510SOL  OW    1528   1.075   0.126   0.751
  510SOL  HW1   1529   1.137   0.111   0.828
  510SOL  HW2   1530   1.075   0.222   0.726
  511SOL  OW    1531   1.062   0.124   1.081
  511SOL  HW1   1532   1.028   0.129   1.175
  511SOL  HW2   1533   1.046   0.212   1.036
  512SOL  OW    1534   1.093   0.119   1.383
  512SOL  HW1   1535   1.003   0.081   1.404
  512SOL  HW2   1536   1.145   0.054   1.329
  513SOL  OW    1537   1.099   0.174   1.718
  513SOL  HW1   1538   1.076   0.262   1.759
  513SOL  HW2   1539   1.016   0.122   1.701
  514SOL  OW    1540   1.073   0.179   1.979
  514SOL  HW1   1541   0.980   0.216   1.980
  514SOL  HW2   1542   1.111   0.183   2.072
  515SOL  OW    1543   1.066   0.128   2.305
  515SOL  HW1   1544   0.971   0.160   2.312
  515SOL  HW2   1545   1.070   0.050   2.243
  516SOL  OW    1546   1.068   0.133   2.636
  516SOL  HW1   1547   1.075   0.082   2.550
  516SOL  HW2   1548   1.045   0.229   2.616
  517SOL  OW    1549   1.062   0.136   2.894
  517SOL  HW1   1550   1.142   0.170   2.942
  517SOL  HW2   1551   1.075   0.147   2.795
  518SOL  OW    1552   1.072   0.138   3.220
  518SOL  HW1   1553   1.123   0.083   3.154
  518SOL  HW2   1554   1.128   0.216   3.249
  519SOL  OW    1555   1.056   0.175   3.573
  519SOL  HW1   1556   0.992   0.241   3.613
  519SOL  HW2   1557   1.069   0.196   3.476
  520SOL  OW    1558   1.077   0.165   3.876
  520SOL  HW1   1559   1.014   0.224   3.825
  520SOL  HW2   1560   1.080   0.075   3.832
  521SOL  OW    1561   1.117   0.471   0.185
  521SOL  HW1   1562   1.047   0.527   0.140
  521SOL  HW2   1563   1.171   0.527   0.247
  522SOL  OW    1564   1.110   0.485   0.458
  522SOL  HW1   1565   1.017   0.498   0.494
  522SOL  HW2   1566   1.176   0.498   0.532
  523SOL  OW    1567   1.043   0.423   0.767
  523SOL  HW1   1568   1.116   0.360   0.795
  523SOL  HW2   1569   1.068   0.464   0.680
  524SOL  OW    1570   1.076   0.454   1.082
  524SOL  HW1   1571   1.100   0.498   1.169
  524SOL  HW2   1572   1.125   0.500   1.008
  525SOL  OW    1573   1.081   0.488   1.353
  525SOL  HW1   1574   1.113   0.444   1.270
  525SOL  HW2   1575   1.160   0.514   1.410
  526SOL  OW    1576   1.055   0.485   1.720
  526SOL  HW1   1577   1.098   0.441   1.799
  526SOL  HW2   1578   0.979   0.542   1.751
  527SOL  OW    1579   1.117   0.491   2.031
  527SOL  HW1   1580   1.197   0.544   2.057
  527SOL  HW2   1581   1.062   0.472   2.113
  528SOL  OW    1582   1.062   0.454   2.289
  528SOL  HW1   1583   0.971   0.460   2.331
  528SOL  HW2   1584   1.090   0.544   2.257
  529SOL  OW    1585   1.085   0.497   2.603
  529SOL  HW1   1586   0.988   0.491   2.583
  529SOL  HW2   1587   1.114   0.414   2.652
  530SOL  OW    1588   1.081   0.445   2.897
  530SOL  HW1   1589   1.066   0.518   2.964
  530SOL  HW2   1590   1.070   0.482   2.804
  531SOL  OW    1591   1.053   0.426   3.267
  531SOL  HW1   1592   0.998   0.345   3.285
  531SOL  HW2   1593   0.992   0.504   3.251
  532SOL  OW    1594   1.069   0.488   3.553
  532SOL  HW1   1595   1.103   0.438   3.632
  532SOL  HW2   1596   1.070   0.586   3.573
  533SOL  OW    1597   1.052   0.436   3.871
  533SOL  HW1   1598   1.069   0.513   3.810
  533SOL  HW2   1599   1.094   0.453   3.960
  534SOL  OW    1600   1.058   0.802   0.125
  534SOL  HW1   1601   1.025   0.750   0.204
  534SOL  HW2   1602   1.020   0.895   0.127
  535SOL  OW    1603   1.091   0.794   0.440
  535SOL  HW1   1604   1.000   0.794   0.481
  535SOL  HW2   1605   1.151   0.734   0.493
  536SOL  OW    1606   1.059   0.806   0.750
  536SOL  HW1   1607   1.070   0.905   0.739
  536SOL  HW2   1608   0.982   0.775   0.696
  537SOL  OW    1609   1.071   0.764   1.057
  537SOL  HW1   1610   1.102   0.839   0.999
  537SOL  HW2   1611   1.073   0.679   1.005
  538SOL  OW    1612   1.099   0.791   1.375
  538SOL  HW1   1613   1.143   0.768   1.462
  538SOL  HW2   1614   1.169   0.820   1.309
  539SOL  OW    1615   1.104   0.746   1.653
  539SOL  HW1   1616   1.184   0.765   1.710
  539SOL  HW2   1617   1.106   0.805   1.572
  540SOL  OW    1618   1.083   0.809   1.963
  540SOL  HW1   1619   1.138   0.858   2.030
  540SOL  HW2   1620   0.993   0.789   2.003
  541SOL  OW    1621   1.054   0.771   2.332
  541SOL  HW1   1622   0.979   0.711   2.304
  541SOL  HW2   1623   1.110   0.723   2.400
  542SOL  OW    1624   1.044   0.761   2.635
  542SOL  HW1   1625   1.019   0.812   2.553
  542SOL  HW2   1626   1.125   0.705   2.616
  543SOL  OW    1627   1.067   0.744   2.899
  543SOL  HW1   1628   1.019   0.770   2.814
  543SOL  HW2   1629   1.063   0.821   2.963
  544SOL  OW    1630   1.070   0.768   3.260
  544SOL  HW1   1631   1.090   0.734   3.352
  544SOL  HW2   1632   1.138   0.836   3.233
  545SOL  OW    1633   1.088   0.784   3.577
  545SOL  HW1   1634   1.097   0.689   3.605
  545SOL  HW2   1635   1.031   0.790   3.495
  546SOL  OW    1636   1.070   0.761   3.880
  546SOL  HW1   1637   1.021   0.696   3.822
  546SOL  HW2   1638   1.038   0.854   3.860
  547SOL  OW    1639   1.057   1.095   0.174
  547SOL  HW1   1640   0.969   1.129   0.210
  547SOL  HW2   1641   1.063   1.116   0.077
  548SOL  OW    1642   1.045   1.074   0.438
  548SOL  HW1   1643   1.071   0.985   0.401
  548SOL  HW2   1644   0.967   1.064   0.499
  549SOL  OW    1645   1.052   1.074   0.752
  549SOL  HW1   1646   1.014   0.992   0.796
  549SOL  HW2   1647   1.128   1.109   0.807
  550SOL  OW    1648   1.101   1.110   1.101
  550SOL  HW1   1649   1.008   1.074   1.115
  550SOL  HW2   1650   1.096   1.200   1.058
  551SOL  OW    1651   1.058   1.059   1.365
  551SOL  HW1   1652   1.020   1.123   1.431
  551SOL  HW2   1653   1.092   0.978   1.413
  552SOL  OW    1654   1.048   1.112   1.684
  552SOL  HW1   1655   1.061   1.014   1.696
  552SOL  HW2   1656   1.005   1.130   1.596
  553SOL  OW    1657   1.055   1.105   1.992
  553SOL  HW1   1658   1.152   1.083   2.005
  553SOL  HW2   1659   1.008   1.025   1.954
  554SOL  OW    1660   1.040   1.050   2.319
  554SOL  HW1   1661   1.036   1.029   2.221
  554SOL  HW2   1662   1.092   1.134   2.333
  555SOL  OW    1663   1.100   1.054   2.649
  555SOL  HW1   1664   1.091   1.020   2.743
  555SOL  HW2   1665   1.015   1.034   2.598
  556SOL  OW    1666   1.105   1.105   2.901
  556SOL  HW1   1667   1.096   1.099   2.802
  556SOL  HW2   1668   1.014   1.100   2.943
  557SOL  OW    1669   1.041   1.106   3.215
  557SOL  HW1   1670   0.949   1.138   3.239
  557SOL  HW2   1671   1.087   1.176   3.160
  558SOL  OW    1672   1.086   1.098   3.509
  558SOL  HW1   1673   0.988   1.092   3.526
  558SOL  HW2   1674   1.136   1.077   3.593
  559SOL  OW    1675   1.099   1.112   3.864
  559SOL  HW1   1676   1.135   1.143   3.953
  559SOL  HW2   1677   1.051   1.025   3.876
  560SOL  OW    1678   1.072   1.415   0.156
  560SOL  HW1   1679   1.025   1.502   0.145
  560SOL  HW2   1680   1.010   1.340   0.133
  561SOL  OW    1681   1.097   1.410   0.481
  561SOL  HW1   1682   1.169   1.348   0.511
  561SOL  HW2   1683   1.054   1.453   0.562
  562SOL  OW    1684   1.060   1.354   0.748
  562SOL  HW1   1685   1.133   1.289   0.770
  562SOL  HW2   1686   1.098   1.431   0.697
  563SOL  OW    1687   1.077   1.385   1.084
  563SOL  HW1   1688   1.110   1.420   1.171
  563SOL  HW2   1689   0.984   1.351   1.094
  564SOL  OW    1690   1.069   1.408   1.418
  564SOL  HW1   1691   1.140   1.443   1.478
  564SOL  HW2   1692   1.017   1.484   1.379
  565SOL  OW    1693   1.057   1.404   1.707
  565SOL  HW1   1694   1.014   1.494   1.705
  565SOL  HW2   1695   1.098   1.384   1.617
  566SOL  OW    1696   1.079   1.360   2.024
  566SOL  HW1   1697   1.104   1.313   2.108
  566SOL  HW2   1698   1.091   1.458   2.035
  567SOL  OW    1699   1.114   1.402   2.341
  567SOL  HW1   1700   1.177   1.480   2.347
  567SOL  HW2   1701   1.152   1.325   2.392
  568SOL  OW    1702   1.116   1.373   2.626
  568SOL  HW1   1703   1.129   1.303   2.556
  568SOL  HW2   1704   1.107   1.463   2.584
  569SOL  OW    1705   1.075   1.424   2.891
  569SOL  HW1   1706   1.100   1.439   2.986
  569SOL  HW2   1707   1.104   1.501   2.835
  570SOL  OW    1708   1.070   1.415   3.213
  570SOL  HW1   1709   1.047   1.384   3.121
  570SOL  HW2   1710   1.094   1.336   3.270
  571SOL  OW    1711   1.100   1.375   3.577
  571SOL  HW1   1712   1.198   1.371   3.560
  571SOL  HW2   1713   1.061   1.454   3.529
  572SOL  OW    1714   1.108   1.369   3.868
  572SOL  HW1   1715   1.128   1.398   3.774
  572SOL  HW2   1716   1.013   1.338   3.873
  573SOL  OW    1717   1.064   1.701   0.167
  573SOL  HW1   1718   0.979   1.657   0.137
  573SOL  HW2   1719   1.052   1.800   0.166
  574SOL  OW    1720   1.103   1.654   0.439
  574SOL  HW1   1721   1.130   1.558   0.433
  574SOL  HW2   1722   1.011   1.666   0.403
  575SOL  OW    1723   1.094   1.697   0.769
  575SOL  HW1   1724   1.152   1.636   0.716
  575SOL  HW2   1725   1.123   1.792   0.754
  576SOL  OW    1726   1.041   1.680   1.106
  576SOL  HW1   1727   1.026   1.710   1.200
  576SOL  HW2   1728   1.019   1.583   1.097
  577SOL  OW    1729   1.039   1.684   1.420
  577SOL  HW1   1730   1.111   1.651   1.358
  577SOL  HW2   1731   0.987   1.756   1.375
  578SOL  OW    1732   1.041   1.712   1.673
  578SOL  HW1   1733   1.123   1.659   1.694
  578SOL  HW2   1734   0.981   1.715   1.753
  579SOL  OW    1735   1.106   1.712   2.031
  579SOL  HW1   1736   1.154   1.625   2.023
  579SOL  HW2   1737   1.161   1.776   2.085
  580SOL  OW    1738   1.054   1.695   2.330
  580SOL  HW1   1739   1.005   1.648   2.403
  580SOL  HW2   1740   0.994   1.705   2.251
  581SOL  OW    1741   1.057   1.671   2.578
  581SOL  HW1   1742   1.104   1.723   2.507
  581SOL  HW2   1743   0.961   1.659   2.552
  582SOL  OW    1744   1.114   1.709   2.934
  582SOL  HW1   1745   1.201   1.728   2.888
  582SOL  HW2   1746   1.131   1.665   3.022
  583SOL  OW    1747   1.096   1.695   3.229
  583SOL  HW1   1748   1.116   1.658   3.138
  583SOL  HW2   1749   1.149   1.644   3.297
  584SOL  OW    1750   1.073   1.704   3.515
  584SOL  HW1   1751   1.110   1.636   3.451
  584SOL  HW2   1752   1.134   1.712   3.594
  585SOL  OW    1753   1.108   1.717   3.834
  585SOL  HW1   1754   1.195   1.681   3.868
  585SOL  HW2   1755   1.089   1.806   3.877
  586SOL  OW    1756   1.083   1.971   0.192
  586SOL  HW1   1757   0.992   1.947   0.158
  586SOL  HW2   1758   1.117   2.051   0.142
  587SOL  OW    1759   1.109   2.034   0.448
  587SOL  HW1   1760   1.191   1.978   0.462
  587SOL  HW2   1761   1.049   2.025   0.527
  588SOL  OW    1762   1.050   1.977   0.736
  588SOL  HW1   1763   0.986   2.039   0.691
  588SOL  HW2   1764   1.029   1.882   0.712
  589SOL  OW    1765   1.047   1.966   1.116
  589SOL  HW1   1766   1.030   1.897   1.187
  589SOL  HW2   1767   0.959   2.003   1.085
  590SOL  OW    1768   1.043   1.971   1.411
  590SOL  HW1   1769   1.018   1.875   1.424
  590SOL  HW2   1770   1.016   1.999   1.319
  591SOL  OW    1771   1.083   2.022   1.703
  591SOL  HW1   1772   1.002   2.007   1.759
  591SOL  HW2   1773   1.097   1.943   1.643
  592SOL  OW    1774   1.107   2.011   2.002
  592SOL  HW1   1775   1.064   1.955   2.072
  592SOL  HW2   1776   1.141   2.096   2.042
  593SOL  OW    1777   1.094   1.996   2.295
  593SOL  HW1   1778   1.024   1.932   2.328
  593SOL  HW2   1779   1.055   2.055   2.225
  594SOL  OW    1780   1.074   1.974   2.639
  594SOL  HW1   1781   1.078   2.028   2.723
  594SOL  HW2   1782   1.125   2.021   2.567
  595SOL  OW    1783   1.058   1.972   2.903
  595SOL  HW1   1784   1.155   1.986   2.882
  595SOL  HW2   1785   1.023   2.050   2.955
  596SOL  OW    1786   1.104   1.986   3.246
  596SOL  HW1   1787   1.103   2.056   3.317
  596SOL  HW2   1788   1.021   1.931   3.252
  597SOL  OW    1789   1.105   1.966   3.560
  597SOL  HW1   1790   1.198   1.982   3.526
  597SOL  HW2   1791   1.066   2.052   3.592
  598SOL  OW    1792   1.062   1.977   3.861
  598SOL  HW1   1793   1.142   1.939   3.906
  598SOL  HW2   1794   1.048   1.932   3.773
  599SOL  OW    1795   1.110   2.291   0.159
  599SOL  HW1   1796   1.201   2.288   0.201
  599SOL  HW2   1797   1.043   2.323   0.227
  600SOL  OW    1798   1.060   2.312   0.471
  600SOL  HW1   1799   1.125   2.355   0.408
  600SOL  HW2   1800   1.045   2.372   0.550
  601SOL  OW    1801   1.086   2.318   0.740
  601SOL  HW1   1802   1.128   2.353   0.657
  601SOL  HW2   1803   1.089   2.387   0.811
  602SOL  OW    1804   1.092   2.322   1.092
  602SOL  HW1   1805   1.042   2.237   1.072
  602SOL  HW2   1806   1.186   2.299   1.120
  603SOL  OW    1807   1.043   2.303   1.377
  603SOL  HW1   1808   0.953   2.276   1.413
  603SOL  HW2   1809   1.102   2.329   1.454
  604SOL  OW    1810   1.044   2.285   1.688
  604SOL  HW1   1811   1.113   2.302   1.617
  604SOL  HW2   1812   0.973   2.356   1.682
  605SOL  OW    1813   1.096   2.287   2.026
  605SOL  HW1   1814   1.036   2.208   2.040
  605SOL  HW2   1815   1.107   2.336   2.113
  606SOL  OW    1816   1.081   2.329   2.305
  606SOL  HW1   1817   1.173   2.355   2.280
  606SOL  HW2   1818   1.085   2.263   2.381
  607SOL  OW    1819   1.077   2.317   2.650
  607SOL  HW1   1820   1.062   2.414   2.671
  607SOL  HW2   1821   0.994   2.266   2.671
  608SOL  OW    1822   1.076   2.310   2.931
  608SOL  HW1   1823   0.978   2.303   2.947
  608SOL  HW2   1824   1.095   2.385   2.868
  609SOL  OW    1825   1.096   2.273   3.232
  609SOL  HW1   1826   1.046   2.189   3.254
  609SOL  HW2   1827   1.099   2.332   3.313
  610SOL  OW    1828   1.075   2.341   3.538
  610SOL  HW1   1829   1.169   2.378   3.538
  610SOL  HW2   1830   1.040   2.339   3.444
  611SOL  OW    1831   1.074   2.345   3.842
  611SOL  HW1   1832   1.068   2.245   3.844
  611SOL  HW2   1833   0.989   2.384   3.876
  612SOL  OW    1834   1.051   2.593   0.121
  612SOL  HW1   1835   1.095   2.646   0.049
  612SOL  HW2   1836   1.104   2.603   0.206
  613SOL  OW    1837   1.037   2.610   0.483
  613SOL  HW1   1838   1.093   2.536   0.520
  613SOL  HW2   1839   1.024   2.680   0.553
  614SOL  OW    1840   1.096   2.578   0.775
  614SOL  HW1   1841   1.154   2.615   0.703
  614SOL  HW2   1842   1.039   2.505   0.737
  615SOL  OW    1843   1.049   2.651   1.050
  615SOL  HW1   1844   0.967   2.693   1.013
  615SOL  HW2   1845   1.054   2.669   1.149
  616SOL  OW    1846   1.087   2.601   1.396
  616SOL  HW1   1847   1.052   2.695   1.405
  616SOL  HW2   1848   1.167   2.590   1.455
  617SOL  OW    1849   1.070   2.636   1.671
  617SOL  HW1   1850   1.064   2.606   1.766
  617SOL  HW2   1851   1.162   2.620   1.636
  618SOL  OW    1852   1.109   2.615   2.020
  618SOL  HW1   1853   1.128   2.684   1.950
  618SOL  HW2   1854   1.194   2.597   2.071
  619SOL  OW    1855   1.105   2.655   2.286
  619SOL  HW1   1856   1.077   2.603   2.205
  619SOL  HW2   1857   1.149   2.594   2.351
  620SOL  OW    1858   1.060   2.595   2.596
  620SOL  HW1   1859   1.159   2.595   2.607
  620SOL  HW2   1860   1.020   2.524   2.654
  621SOL  OW    1861   1.084   2.655   2.962
  621SOL  HW1   1862   1.169   2.671   2.913
  621SOL  HW2   1863   1.043   2.569   2.932
  622SOL  OW    1864   1.079   2.627   3.260
  622SOL  HW1   1865   1.114   2.697   3.198
  622SOL  HW2   1866   1.103   2.536   3.224
  623SOL  OW    1867   1.112   2.592   3.541
  623SOL  HW1   1868   1.012   2.591   3.534
  623SOL  HW2   1869   1.143   2.507   3.583
  624SOL  OW    1870   1.104   2.600   3.841
  624SOL  HW1   1871   1.028   2.555   3.794
  624SOL  HW2   1872   1.126   2.549   3.924
  625SOL  OW    1873   1.116   2.962   0.186
  625SOL  HW1   1874   1.024   2.999   0.202
  625SOL  HW2   1875   1.116   2.864   0.206
  626SOL  OW    1876   1.101   2.905   0.447
  626SOL  HW1   1877   1.200   2.897   0.436
  626SOL  HW2   1878   1.075   3.001   0.459
  627SOL  OW    1879   1.081   2.928   0.770
  627SOL  HW1   1880   1.102   2.980   0.687
  627SOL  HW2   1881   1.148   2.950   0.841
  628SOL  OW    1882   1.088   2.916   1.097
  628SOL  HW1   1883   1.150   2.989   1.067
  628SOL  HW2   1884   1.044   2.874   1.017
  629SOL  OW    1885   1.064   2.910   1.355
  629SOL  HW1   1886   1.086   2.829   1.409
  629SOL  HW2   1887   1.134   2.979   1.368
  630SOL  OW    1888   1.052   2.951   1.688
  630SOL  HW1   1889   1.075   3.038   1.732
  630SOL  HW2   1890   1.118   2.881   1.716
  631SOL  OW    1891   1.055   2.944   2.004
  631SOL  HW1   1892   1.073   2.847   2.023
  631SOL  HW2   1893   1.115   3.000   2.061
  632SOL  OW    1894   1.039   2.908   2.282
  632SOL  HW1   1895   0.988   2.824   2.299
  632SOL  HW2   1896   1.005   2.980   2.342
  633SOL  OW    1897   1.089   2.905   2.581
  633SOL  HW1   1898   1.106   2.811   2.552
  633SOL  HW2   1899   1.108   2.914   2.678
  634SOL  OW    1900   1.041   2.930   2.885
  634SOL  HW1   1901   1.013   2.868   2.958
  634SOL  HW2   1902   1.126   2.976   2.911
  635SOL  OW    1903   1.105   2.896   3.239
  635SOL  HW1   1904   1.005   2.903   3.238
  635SOL  HW2   1905   1.131   2.803   3.265
  636SOL  OW    1906   1.072   2.919   3.504
  636SOL  HW1   1907   1.078   2.824   3.536
  636SOL  HW2   1908   1.121   2.978   3.568
  637SOL  OW    1909   1.101   2.955   3.807
  637SOL  HW1   1910   1.113   3.017   3.730
  637SOL  HW2   1911   1.091   2.861   3.773
  638SOL  OW    1912   1.051   3.263   0.158
  638SOL  HW1   1913   1.094   3.196   0.097
  638SOL  HW2   1914   1.105   3.270   0.242
  639SOL  OW    1915   1.049   3.207   0.474
  639SOL  HW1   1916   1.093   3.220   0.563
  639SOL  HW2   1917   1.117   3.215   0.402
  640SOL  OW    1918   1.095   3.239   0.805
  640SOL  HW1   1919   1.082   3.261   0.902
  640SOL  HW2   1920   1.081   3.141   0.792
  641SOL  OW    1921   1.076   3.215   1.075
  641SOL  HW1   1922   0.988   3.257   1.055
  641SOL  HW2   1923   1.144   3.286   1.095
  642SOL  OW    1924   1.066   3.209   1.348
  642SOL  HW1   1925   1.046   3.303   1.320
  642SOL  HW2   1926   1.156   3.205   1.391
  643SOL  OW    1927   1.065   3.248   1.654
  643SOL  HW1   1928   1.143   3.275   1.710
  643SOL  HW2   1929   1.085   3.160   1.610
  644SOL  OW    1930   1.072   3.242   2.009
  644SOL  HW1   1931   0.978   3.226   1.977
  644SOL  HW2   1932   1.091   3.341   2.009
  645SOL  OW    1933   1.099   3.256   2.325
  645SOL  HW1   1934   1.058   3.266   2.234
  645SOL  HW2   1935   1.181   3.313   2.331
  646SOL  OW    1936   1.045   3.229   2.624
  646SOL  HW1   1937   0.968   3.193   2.571
  646SOL  HW2   1938   1.026   3.219   2.721
  647SOL  OW    1939   1.057   3.194   2.901
  647SOL  HW1   1940   1.099   3.278   2.936
  647SOL  HW2   1941   1.124   3.121   2.899
  648SOL  OW    1942   1.073   3.224   3.205
  648SOL  HW1   1943   1.165   3.186   3.214
  648SOL  HW2   1944   1.036   3.243   3.296
  649SOL  OW    1945   1.103   3.265   3.515
  649SOL  HW1   1946   1.128   3.340   3.453
  649SOL  HW2   1947   1.149   3.181   3.486
  650SOL  OW    1948   1.111   3.192   3.880
  650SOL  HW1   1949   1.193   3.148   3.917
  650SOL  HW2   1950   1.095   3.160   3.787
  651SOL  OW    1951   1.113   3.499   0.175
  651SOL  HW1   1952   1.196   3.455   0.141
  651SOL  HW2   1953   1.035   3.437   0.166
  652SOL  OW    1954   1.115   3.571   0.499
  652SOL  HW1   1955   1.165   3.601   0.418
  652SOL  HW2   1956   1.161   3.604   0.581
  653SOL  OW    1957   1.081   3.505   0.797
  653SOL  HW1   1958   1.095   3.598   0.765
  653SOL  HW2   1959   1.035   3.507   0.886
  654SOL  OW    1960   1.086   3.548   1.070
  654SOL  HW1   1961   1.017   3.593   1.013
  654SOL  HW2   1962   1.085   3.588   1.162
  655SOL  OW    1963   1.083   3.511   1.404
  655SOL  HW1   1964   1.061   3.465   1.490
  655SOL  HW2   1965   1.013   3.580   1.385
  656SOL  OW    1966   1.043   3.557   1.720
  656SOL  HW1   1967   1.041   3.586   1.816
  656SOL  HW2   1968   0.953   3.573   1.679
  657SOL  OW    1969   1.075   3.539   1.985
  657SOL  HW1   1970   1.017   3.477   2.038
  657SOL  HW2   1971   1.057   3.526   1.887
  658SOL  OW    1972   1.114   3.557   2.297
  658SOL  HW1   1973   1.015   3.562   2.304
  658SOL  HW2   1974   1.140   3.486   2.232
  659SOL  OW    1975   1.051   3.516   2.612
  659SOL  HW1   1976   1.116   3.470   2.672
  659SOL  HW2   1977   1.037   3.610   2.645
  660SOL  OW    1978   1.112   3.557   2.900
  660SOL  HW1   1979   1.055   3.638   2.887
  660SOL  HW2   1980   1.082   3.508   2.982
  661SOL  OW    1981   1.106   3.529   3.259
  661SOL  HW1   1982   1.038   3.536   3.332
  661SOL  HW2   1983   1.142   3.435   3.256
  662SOL  OW    1984   1.056   3.548   3.573
  662SOL  HW1   1985   1.116   3.469   3.587
  662SOL  HW2   1986   0.962   3.517   3.564
  663SOL  OW    1987   1.058   3.554   3.885
  663SOL  HW1   1988   1.094   3.601   3.965
  663SOL  HW2   1989   1.133   3.513   3.833
  664SOL  OW    1990   1.049   3.813   0.168
  664SOL  HW1   1991   1.092   3.897   0.135
  664SOL  HW2   1992   0.950   3.825   0.169
  665SOL  OW    1993   1.064   3.812   0.460
  665SOL  HW1   1994   1.011   3.813   0.544
  665SOL  HW2   1995   1.118   3.728   0.455
  666SOL  OW    1996   1.097   3.829   0.756
  666SOL  HW1   1997   1.090   3.729   0.756
  666SOL  HW2   1998   1.193   3.856   0.742
  667SOL  OW    1999   1.105   3.848   1.104
  667SOL  HW1   2000   1.010   3.825   1.129
  667SOL  HW2   2001   1.111   3.946   1.085
  668SOL  OW    2002   1.073   3.882   1.397
  668SOL  HW1   2003   1.079   3.788   1.429
  668SOL  HW2   2004   0.983   3.897   1.354
  669SOL  OW    2005   1.046   3.877   1.691
  669SOL  HW1   2006   0.964   3.914   1.648
  669SOL  HW2   2007   1.020   3.824   1.772
  670SOL  OW    2008   1.048   3.818   2.015
  670SOL  HW1   2009   1.143   3.831   1.986
  670SOL  HW2   2010   1.004   3.908   2.023
  671SOL  OW    2011   1.041   3.829   2.279
  671SOL  HW1   2012   1.134   3.807   2.250
  671SOL  HW2   2013   0.981   3.751   2.261
  672SOL  OW    2014   1.072   3.839   2.617
  672SOL  HW1   2015   1.005   3.864   2.687
  672SOL  HW2   2016   1.042   3.874   2.528
  673SOL  OW    2017   1.059   3.809   2.932
  673SOL  HW1   2018   0.974   3.769   2.966
  673SOL  HW2   2019   1.043   3.852   2.843
  674SOL  OW    2020   1.067   3.858   3.199
  674SOL  HW1   2021   1.105   3.771   3.169
  674SOL  HW2   2022   1.114   3.888   3.283
  675SOL  OW    2023   1.038   3.826   3.535
  675SOL  HW1   2024   0.984   3.812   3.452
  675SOL  HW2   2025   1.123   3.773   3.529
  676SOL  OW    2026   1.068   3.871   3.836
  676SOL  HW1   2027   1.025   3.879   3.926
  676SOL  HW2   2028   1.066   3.959   3.790
  677SOL  OW    2029   1.387   0.161   0.116
  677SOL  HW1   2030   1.327   0.237   0.142
  677SOL  HW2   2031   1.391   0.094   0.190
  678SOL  OW    2032   1.386   0.141   0.455
  678SOL  HW1   2033   1.399   0.089   0.540
  678SOL  HW2   2034   1.475   0.158   0.412
  679SOL  OW    2035   1.353   0.176   0.805
  679SOL  HW1   2036   1.428   0.164   0.740
  679SOL  HW2   2037   1.310   0.088   0.824
  680SOL  OW    2038   1.346   0.162   1.098
  680SOL  HW1   2039   1.438   0.155   1.137
  680SOL  HW2   2040   1.296   0.236   1.143
  681SOL  OW    2041   1.367   0.177   1.395
  681SOL  HW1   2042   1.426   0.130   1.329
  681SOL  HW2   2043   1.307   0.240   1.347
  682SOL  OW    2044   1.419   0.192   1.656
  682SOL  HW1   2045   1.453   0.141   1.735
  682SOL  HW2   2046   1.457   0.153   1.572
  683SOL  OW    2047   1.380   0.158   1.972
  683SOL  HW1   2048   1.352   0.253   1.983
  683SOL  HW2   2049   1.480   0.152   1.969
  684SOL  OW    2050   1.372   0.193   2.269
  684SOL  HW1   2051   1.339   0.264   2.331
  684SOL  HW2   2052   1.427   0.127   2.320
  685SOL  OW    2053   1.381   0.181   2.601
  685SOL  HW1   2054   1.473   0.159   2.633
  685SOL  HW2   2055   1.386   0.249   2.528
  686SOL  OW    2056   1.383   0.192   2.921
  686SOL  HW1   2057   1.359   0.289   2.909
  686SOL  HW2   2058   1.315   0.135   2.875
  687SOL  OW    2059   1.355   0.118   3.266
  687SOL  HW1   2060   1.272   0.084   3.222
  687SOL  HW2   2061   1.353   0.218   3.270
  688SOL  OW    2062   1.366   0.154   3.506
  688SOL  HW1   2063   1.310   0.072   3.506
  688SOL  HW2   2064   1.413   0.162   3.418
  689SOL  OW    2065   1.379   0.188   3.846
  689SOL  HW1   2066   1.403   0.097   3.814
  689SOL  HW2   2067   1.440   0.256   3.807
  690SOL  OW    2068   1.422   0.442   0.154
  690SOL  HW1   2069   1.406   0.510   0.226
  690SOL  HW2   2070   1.394   0.479   0.066
  691SOL  OW    2071   1.413   0.457   0.444
  691SOL  HW1   2072   1.447   0.537   0.494
  691SOL  HW2   2073   1.400   0.381   0.507
  692SOL  OW    2074   1.413   0.453   0.772
  692SOL  HW1   2075   1.365   0.374   0.811
  692SOL  HW2   2076   1.511   0.434   0.769
  693SOL  OW    2077   1.423   0.436   1.061
  693SOL  HW1   2078   1.337   0.403   1.021
  693SOL  HW2   2079   1.403   0.512   1.124
  694SOL  OW    2080   1.347   0.453   1.361
  694SOL  HW1   2081   1.443   0.438   1.336
  694SOL  HW2   2082   1.296   0.367   1.350
  695SOL  OW    2083   1.399   0.436   1.706
  695SOL  HW1   2084   1.375   0.435   1.609
  695SOL  HW2   2085   1.493   0.405   1.717
  696SOL  OW    2086   1.366   0.450   1.988
  696SOL  HW1   2087   1.287   0.423   1.932
  696SOL  HW2   2088   1.337   0.459   2.083
  697SOL  OW    2089   1.402   0.459   2.297
  697SOL  HW1   2090   1.422   0.519   2.219
  697SOL  HW2   2091   1.308   0.426   2.290
  698SOL  OW    2092   1.413   0.467   2.592
  698SOL  HW1   2093   1.433   0.469   2.690
  698SOL  HW2   2094   1.315   0.453   2.579
  699SOL  OW    2095   1.417   0.449   2.886
  699SOL  HW1   2096   1.416   0.445   2.986
  699SOL  HW2   2097   1.486   0.386   2.851
  700SOL  OW    2098   1.384   0.431   3.210
  700SOL  HW1   2099   1.313   0.370   3.245
  700SOL  HW2   2100   1.472   0.407   3.250
  701SOL  OW    2101   1.404   0.432   3.563
  701SOL  HW1   2102   1.394   0.516   3.510
  701SOL  HW2   2103   1.437   0.359   3.503
  702SOL  OW    2104   1.420   0.470   3.863
  702SOL  HW1   2105   1.375   0.408   3.928
  702SOL  HW2   2106   1.352   0.502   3.796
  703SOL  OW    2107   1.402   0.809   0.141
  703SOL  HW1   2108   1.424   0.906   0.142
  703SOL  HW2   2109   1.446   0.765   0.063
  704SOL  OW    2110   1.358   0.771   0.464
  704SOL  HW1   2111   1.403   0.799   0.549
  704SOL  HW2   2112   1.425   0.761   0.391
  705SOL  OW    2113   1.359   0.778   0.730
  705SOL  HW1   2114   1.448   0.752   0.767
  705SOL  HW2   2115   1.366   0.869   0.689
  706SOL  OW    2116   1.419   0.750   1.040
  706SOL  HW1   2117   1.502   0.781   0.994
  706SOL  HW2   2118   1.368   0.689   0.980
  707SOL  OW    2119   1.353   0.748   1.367
  707SOL  HW1   2120   1.341   0.808   1.446
  707SOL  HW2   2121   1.449   0.750   1.338
  708SOL  OW    2122   1.347   0.752   1.668
  708SOL  HW1   2123   1.316   0.660   1.694
  708SOL  HW2   2124   1.277   0.819   1.691
  709SOL  OW    2125   1.375   0.760   1.987
  709SOL  HW1   2126   1.461   0.711   1.974
  709SOL  HW2   2127   1.304   0.719   1.930
  710SOL  OW    2128   1.371   0.736   2.270
  710SOL  HW1   2129   1.354   0.684   2.186
  710SOL  HW2   2130   1.379   0.833   2.247
  711SOL  OW    2131   1.361   0.790   2.655
  711SOL  HW1   2132   1.364   0.878   2.608
  711SOL  HW2   2133   1.362   0.804   2.754
  712SOL  OW    2134   1.419   0.770   2.926
  712SOL  HW1   2135   1.336   0.801   2.972
  712SOL  HW2   2136   1.499   0.799   2.977
  713SOL  OW    2137   1.370   0.791   3.252
  713SOL  HW1   2138   1.469   0.803   3.250
  713SOL  HW2   2139   1.330   0.827   3.168
  714SOL  OW    2140   1.412   0.801   3.533
  714SOL  HW1   2141   1.456   0.734   3.593
  714SOL  HW2   2142   1.482   0.849   3.480
  715SOL  OW    2143   1.406   0.794   3.831
  715SOL  HW1   2144   1.419   0.799   3.930
  715SOL  HW2   2145   1.405   0.886   3.793
  716SOL  OW    2146   1.419   1.044   0.193
  716SOL  HW1   2147   1.395   1.068   0.099
  716SOL  HW2   2148   1.417   1.127   0.250
  717SOL  OW    2149   1.406   1.044   0.474
  717SOL  HW1   2150   1.478   1.041   0.405
  717SOL  HW2   2151   1.318   1.061   0.430
  718SOL  OW    2152   1.347   1.099   0.793
  718SOL  HW1   2153   1.370   1.001   0.789
  718SOL  HW2   2154   1.415   1.146   0.849
  719SOL  OW    2155   1.393   1.105   1.045
  719SOL  HW1   2156   1.397   1.198   1.008
  719SOL  HW2   2157   1.451   1.099   1.126
  720SOL  OW    2158   1.367   1.070   1.348
  720SOL  HW1   2159   1.300   1.072   1.273
  720SOL  HW2   2160   1.320   1.047   1.433
  721SOL  OW    2161   1.380   1.058   1.684
  721SOL  HW1   2162   1.393   1.154   1.659
  721SOL  HW2   2163   1.417   1.043   1.776
  722SOL  OW    2164   1.379   1.107   1.982
  722SOL  HW1   2165   1.442   1.040   2.020
  722SOL  HW2   2166   1.390   1.111   1.882
  723SOL  OW    2167   1.416   1.071   2.294
  723SOL  HW1   2168   1.493   1.059   2.356
  723SOL  HW2   2169   1.436   1.026   2.207
  724SOL  OW    2170   1.385   1.070   2.596
  724SOL  HW1   2171   1.337   1.158   2.599
  724SOL  HW2   2172   1.393   1.040   2.501
  725SOL  OW    2173   1.385   1.049   2.911
  725SOL  HW1   2174   1.366   1.144   2.937
  725SOL  HW2   2175   1.306   1.012   2.862
  726SOL  OW    2176   1.390   1.070   3.257
  726SOL  HW1   2177   1.324   1.128   3.305
  726SOL  HW2   2178   1.429   1.004   3.321
  727SOL  OW    2179   1.365   1.115   3.561
  727SOL  HW1   2180   1.446   1.133   3.506
  727SOL  HW2   2181   1.318   1.034   3.525
  728SOL  OW    2182   1.422   1.104   3.818
  728SOL  HW1   2183   1.360   1.174   3.784
  728SOL  HW2   2184   1.394   1.076   3.910
  729SOL  OW    2185   1.387   1.358   0.179
  729SOL  HW1   2186   1.442   1.359   0.096
  729SOL  HW2   2187   1.436   1.308   0.251
  730SOL  OW    2188   1.391   1.366   0.496
  730SOL  HW1   2189   1.328   1.399   0.426
  730SOL  HW2   2190   1.382   1.267   0.505
  731SOL  OW    2191   1.354   1.390   0.787
  731SOL  HW1   2192   1.310   1.417   0.872
  731SOL  HW2   2193   1.436   1.337   0.807
  732SOL  OW    2194   1.349   1.392   1.102
  732SOL  HW1   2195   1.339   1.456   1.025
  732SOL  HW2   2196   1.263   1.344   1.117
  733SOL  OW    2197   1.350   1.386   1.365
  733SOL  HW1   2198   1.307   1.372   1.276
  733SOL  HW2   2199   1.301   1.457   1.415
  734SOL  OW    2200   1.398   1.354   1.727
  734SOL  HW1   2201   1.374   1.388   1.819
  734SOL  HW2   2202   1.367   1.259   1.718
  735SOL  OW    2203   1.416   1.359   1.986
  735SOL  HW1   2204   1.356   1.430   1.948
  735SOL  HW2   2205   1.362   1.293   2.037
  736SOL  OW    2206   1.392   1.402   2.303
  736SOL  HW1   2207   1.345   1.453   2.375
  736SOL  HW2   2208   1.455   1.463   2.254
  737SOL  OW    2209   1.357   1.353   2.655
  737SOL  HW1   2210   1.422   1.425   2.679
  737SOL  HW2   2211   1.340   1.355   2.557
  738SOL  OW    2212   1.381   1.414   2.922
  738SOL  HW1   2213   1.393   1.425   2.823
  738SOL  HW2   2214   1.437   1.338   2.954
  739SOL  OW    2215   1.418   1.352   3.200
  739SOL  HW1   2216   1.418   1.290   3.121
  739SOL  HW2   2217   1.408   1.446   3.169
  740SOL  OW    2218   1.419   1.420   3.524
  740SOL  HW1   2219   1.399   1.322   3.520
  740SOL  HW2   2220   1.398   1.455   3.615
  741SOL  OW    2221   1.373   1.381   3.839
  741SOL  HW1   2222   1.449   1.317   3.831
  741SOL  HW2   2223   1.291   1.331   3.868
  742SOL  OW    2224   1.360   1.724   0.134
  742SOL  HW1   2225   1.401   1.678   0.055
  742SOL  HW2   2226   1.285   1.668   0.170
  743SOL  OW    2227   1.401   1.658   0.425
  743SOL  HW1   2228   1.345   1.575   0.415
  743SOL  HW2   2229   1.364   1.715   0.498
  744SOL  OW    2230   1.397   1.679   0.782
  744SOL  HW1   2231   1.465   1.678   0.708
  744SOL  HW2   2232   1.404   1.766   0.832
  745SOL  OW    2233   1.352   1.728   1.097
  745SOL  HW1   2234   1.267   1.677   1.103
  745SOL  HW2   2235   1.363   1.786   1.178
  746SOL  OW    2236   1.415   1.663   1.370
  746SOL  HW1   2237   1.451   1.621   1.453
  746SOL  HW2   2238   1.332   1.714   1.393
  747SOL  OW    2239   1.374   1.695   1.676
  747SOL  HW1   2240   1.300   1.715   1.612
  747SOL  HW2   2241   1.431   1.622   1.639
  748SOL  OW    2242   1.349   1.682   1.980
  748SOL  HW1   2243   1.323   1.606   2.040
  748SOL  HW2   2244   1.437   1.661   1.937
  749SOL  OW    2245   1.375   1.668   2.289
  749SOL  HW1   2246   1.406   1.594   2.228
  749SOL  HW2   2247   1.399   1.646   2.383
  750SOL  OW    2248   1.395   1.683   2.603
  750SOL  HW1   2249   1.433   1.703   2.693
  750SOL  HW2   2250   1.451   1.615   2.558
  751SOL  OW    2251   1.387   1.714   2.913
  751SOL  HW1   2252   1.350   1.659   2.839
  751SOL  HW2   2253   1.487   1.716   2.906
  752SOL  OW    2254   1.392   1.730   3.233
  752SOL  HW1   2255   1.327   1.688   3.169
  752SOL  HW2   2256   1.345   1.751   3.318
  753SOL  OW    2257   1.417   1.716   3.503
  753SOL  HW1   2258   1.320   1.717   3.528
  753SOL  HW2   2259   1.464   1.793   3.547
  754SOL  OW    2260   1.379   1.708   3.885
  754SOL  HW1   2261   1.391   1.807   3.888
  754SOL  HW2   2262   1.420   1.673   3.801
  755SOL  OW    2263   1.381   1.967   0.159
  755SOL  HW1   2264   1.325   1.990   0.239
  755SOL  HW2   2265   1.371   2.039   0.090
  756SOL  OW    2266   1.355   2.020   0.462
  756SOL  HW1   2267   1.388   2.059   0.548
  756SOL  HW2   2268   1.290   1.947   0.482
  757SOL  OW    2269   1.402   2.030   0.780
  757SOL  HW1   2270   1.461   1.949   0.790
  757SOL  HW2   2271   1.435   2.085   0.703
  758SOL  OW    2272   1.394   2.020   1.104
  758SOL  HW1   2273   1.399   1.931   1.148
  758SOL  HW2   2274   1.298   2.042   1.082
  759SOL  OW    2275   1.414   1.963   1.389
  759SOL  HW1   2276   1.493   2.021   1.368
  759SOL  HW2   2277   1.347   1.970   1.316
  760SOL  OW    2278   1.362   2.029   1.704
  760SOL  HW1   2279   1.461   2.036   1.697
  760SOL  HW2   2280   1.325   2.112   1.745
  761SOL  OW    2281   1.378   1.975   1.987
  761SOL  HW1   2282   1.432   2.011   1.911
  761SOL  HW2   2283   1.304   1.918   1.952
  762SOL  OW    2284   1.401   1.976   2.275
  762SOL  HW1   2285   1.464   1.954   2.201
  762SOL  HW2   2286   1.353   1.894   2.304
  763SOL  OW    2287   1.416   2.021   2.591
  763SOL  HW1   2288   1.402   2.114   2.557
  763SOL  HW2   2289   1.348   1.960   2.550
  764SOL  OW    2290   1.368   2.038   2.940
  764SOL  HW1   2291   1.297   2.105   2.961
  764SOL  HW2   2292   1.383   1.980   3.020
  765SOL  OW    2293   1.393   1.985   3.215
  765SOL  HW1   2294   1.449   1.935   3.282
  765SOL  HW2   2295   1.356   1.920   3.148
  766SOL  OW    2296   1.348   2.018   3.502
  766SOL  HW1   2297   1.382   1.953   3.434
  766SOL  HW2   2298   1.347   1.975   3.592
  767SOL  OW    2299   1.345   2.018   3.882
  767SOL  HW1   2300   1.344   1.924   3.850
  767SOL  HW2   2301   1.367   2.020   3.980
  768SOL  OW    2302   1.405   2.305   0.153
  768SOL  HW1   2303   1.329   2.369   0.167
  768SOL  HW2   2304   1.382   2.241   0.080
  769SOL  OW    2305   1.380   2.294   0.463
  769SOL  HW1   2306   1.421   2.210   0.499
  769SOL  HW2   2307   1.405   2.305   0.367
  770SOL  OW    2308   1.379   2.316   0.801
  770SOL  HW1   2309   1.450   2.383   0.821
  770SOL  HW2   2310   1.387   2.286   0.706
  771SOL  OW    2311   1.424   2.274   1.068
  771SOL  HW1   2312   1.382   2.293   1.156
  771SOL  HW2   2313   1.412   2.177   1.045
  772SOL  OW    2314   1.359   2.296   1.368
  772SOL  HW1   2315   1.271   2.249   1.376
  772SOL  HW2   2316   1.415   2.250   1.299
  773SOL  OW    2317   1.359   2.329   1.692
  773SOL  HW1   2318   1.300   2.296   1.766
  773SOL  HW2   2319   1.311   2.317   1.605
  774SOL  OW    2320   1.418   2.270   1.965
  774SOL  HW1   2321   1.501   2.266   1.909
  774SOL  HW2   2322   1.420   2.353   2.022
  775SOL  OW    2323   1.377   2.274   2.289
  775SOL  HW1   2324   1.421   2.327   2.361
  775SOL  HW2   2325   1.397   2.316   2.200
  776SOL  OW    2326   1.423   2.284   2.591
  776SOL  HW1   2327   1.367   2.286   2.509
  776SOL  HW2   2328   1.459   2.376   2.609
  777SOL  OW    2329   1.391   2.308   2.930
  777SOL  HW1   2330   1.348   2.310   2.839
  777SOL  HW2   2331   1.319   2.307   2.999
  778SOL  OW    2332   1.375   2.334   3.202
  778SOL  HW1   2333   1.302   2.266   3.212
  778SOL  HW2   2334   1.453   2.292   3.155
  779SOL  OW    2335   1.379   2.323   3.568
  779SOL  HW1   2336   1.312   2.396   3.580
  779SOL  HW2   2337   1.465   2.348   3.613
  780SOL  OW    2338   1.374   2.313   3.812
  780SOL  HW1   2339   1.447   2.299   3.745
  780SOL  HW2   2340   1.377   2.408   3.844
  781SOL  OW    2341   1.358   2.581   0.172
  781SOL  HW1   2342   1.368   2.664   0.117
  781SOL  HW2   2343   1.427   2.514   0.144
  782SOL  OW    2344   1.368   2.633   0.427
  782SOL  HW1   2345   1.420   2.636   0.512
  782SOL  HW2   2346   1.272   2.613   0.448
  783SOL  OW    2347   1.414   2.642   0.736
  783SOL  HW1   2348   1.494   2.598   0.696
  783SOL  HW2   2349   1.346   2.573   0.762
  784SOL  OW    2350   1.347   2.580   1.105
  784SOL  HW1   2351   1.443   2.596   1.083
  784SOL  HW2   2352   1.307   2.516   1.039
  785SOL  OW    2353   1.363   2.619   1.379
  785SOL  HW1   2354   1.270   2.638   1.349
  785SOL  HW2   2355   1.363   2.592   1.475
  786SOL  OW    2356   1.408   2.614   1.692
  786SOL  HW1   2357   1.348   2.551   1.741
  786SOL  HW2   2358   1.502   2.580   1.695
  787SOL  OW    2359   1.424   2.587   2.026
  787SOL  HW1   2360   1.423   2.490   2.002
  787SOL  HW2   2361   1.513   2.627   2.003
  788SOL  OW    2362   1.349   2.614   2.339
  788SOL  HW1   2363   1.394   2.547   2.397
  788SOL  HW2   2364   1.338   2.700   2.388
  789SOL  OW    2365   1.398   2.630   2.596
  789SOL  HW1   2366   1.486   2.649   2.554
  789SOL  HW2   2367   1.387   2.686   2.679
  790SOL  OW    2368   1.378   2.605   2.925
  790SOL  HW1   2369   1.382   2.568   3.018
  790SOL  HW2   2370   1.376   2.529   2.859
  791SOL  OW    2371   1.382   2.602   3.215
  791SOL  HW1   2372   1.481   2.593   3.213
  791SOL  HW2   2373   1.356   2.684   3.265
  792SOL  OW    2374   1.365   2.605   3.510
  792SOL  HW1   2375   1.450   2.573   3.470
  792SOL  HW2   2376   1.342   2.695   3.474
  793SOL  OW    2377   1.414   2.624   3.817
  793SOL  HW1   2378   1.491   2.571   3.855
  793SOL  HW2   2379   1.397   2.704   3.874
  794SOL  OW    2380   1.400   2.951   0.133
  794SOL  HW1   2381   1.395   2.895   0.050
  794SOL  HW2   2382   1.321   2.931   0.191
  795SOL  OW    2383   1.357   2.884   0.425
  795SOL  HW1   2384   1.448   2.845   0.437
  795SOL  HW2   2385   1.302   2.824   0.367
  796SOL  OW    2386   1.406   2.962   0.733
  796SOL  HW1   2387   1.409   2.862   0.738
  796SOL  HW2   2388   1.415   3.000   0.825
  797SOL  OW    2389   1.404   2.889   1.084
  797SOL  HW1   2390   1.414   2.983   1.054
  797SOL  HW2   2391   1.313   2.876   1.123
  798SOL  OW    2392   1.405   2.912   1.345
  798SOL  HW1   2393   1.391   3.011   1.348
  798SOL  HW2   2394   1.352   2.869   1.419
  799SOL  OW    2395   1.392   2.962   1.673
  799SOL  HW1   2396   1.345   2.882   1.637
  799SOL  HW2   2397   1.336   3.044   1.658
  800SOL  OW    2398   1.360   2.893   2.004
  800SOL  HW1   2399   1.428   2.862   1.938
  800SOL  HW2   2400   1.314   2.814   2.045
  801SOL  OW    2401   1.392   2.946   2.328
  801SOL  HW1   2402   1.446   2.862   2.329
  801SOL  HW2   2403   1.412   2.997   2.244
  802SOL  OW    2404   1.416   2.948   2.595
  802SOL  HW1   2405   1.417   3.046   2.610
  802SOL  HW2   2406   1.440   2.901   2.680
  803SOL  OW    2407   1.389   2.907   2.909
  803SOL  HW1   2408   1.457   2.972   2.943
  803SOL  HW2   2409   1.330   2.878   2.985
  804SOL  OW    2410   1.419   2.938   3.269
  804SOL  HW1   2411   1.325   2.959   3.244
  804SOL  HW2   2412   1.443   2.847   3.235
  805SOL  OW    2413   1.378   2.926   3.537
  805SOL  HW1   2414   1.344   2.987   3.466
  805SOL  HW2   2415   1.416   2.844   3.495
  806SOL  OW    2416   1.353   2.902   3.848
  806SOL  HW1   2417   1.377   2.836   3.777
  806SOL  HW2   2418   1.407   2.884   3.931
  807SOL  OW    2419   1.350   3.265   0.124
  807SOL  HW1   2420   1.328   3.210   0.043
  807SOL  HW2   2421   1.395   3.208   0.192
  808SOL  OW    2422   1.360   3.252   0.429
  808SOL  HW1   2423   1.392   3.164   0.394
  808SOL  HW2   2424   1.261   3.259   0.418
  809SOL  OW    2425   1.417   3.249   0.735
  809SOL  HW1   2426   1.348   3.279   0.801
  809SOL  HW2   2427   1.394   3.157   0.703
  810SOL  OW    2428   1.400   3.241   1.098
  810SOL  HW1   2429   1.410   3.266   1.194
  810SOL  HW2   2430   1.303   3.238   1.074
  811SOL  OW    2431   1.411   3.248   1.392
  811SOL  HW1   2432   1.328   3.225   1.443
  811SOL  HW2   2433   1.490   3.205   1.434
  812SOL  OW    2434   1.370   3.247   1.729
  812SOL  HW1   2435   1.309   3.251   1.650
  812SOL  HW2   2436   1.318   3.261   1.813
  813SOL  OW    2437   1.392   3.244   1.995
  813SOL  HW1   2438   1.377   3.155   1.952
  813SOL  HW2   2439   1.376   3.317   1.928
  814SOL  OW    2440   1.405   3.271   2.281
  814SOL  HW1   2441   1.431   3.210   2.356
  814SOL  HW2   2442   1.433   3.364   2.302
  815SOL  OW    2443   1.361   3.234   2.614
  815SOL  HW1   2444   1.305   3.198   2.689
  815SOL  HW2   2445   1.342   3.182   2.531
  816SOL  OW    2446   1.390   3.195   2.915
  816SOL  HW1   2447   1.319   3.185   2.985
  816SOL  HW2   2448   1.395   3.111   2.860
  817SOL  OW    2449   1.391   3.238   3.243
  817SOL  HW1   2450   1.465   3.170   3.238
  817SOL  HW2   2451   1.338   3.235   3.159
  818SOL  OW    2452   1.402   3.242   3.562
  818SOL  HW1   2453   1.451   3.247   3.649
  818SOL  HW2   2454   1.438   3.312   3.499
  819SOL  OW    2455   1.395   3.234   3.855
  819SOL  HW1   2456   1.360   3.141   3.867
  819SOL  HW2   2457   1.469   3.234   3.788
  820SOL  OW    2458   1.353   3.520   0.156
  820SOL  HW1   2459   1.419   3.451   0.186
  820SOL  HW2   2460   1.281   3.477   0.101
  821SOL  OW    2461   1.414   3.553   0.429
  821SOL  HW1   2462   1.350   3.629   0.434
  821SOL  HW2   2463   1.448   3.531   0.520
  822SOL  OW    2464   1.392   3.516   0.788
  822SOL  HW1   2465   1.294   3.519   0.806
  822SOL  HW2   2466   1.439   3.482   0.869
  823SOL  OW    2467   1.411   3.546   1.084
  823SOL  HW1   2468   1.454   3.590   1.005
  823SOL  HW2   2469   1.367   3.461   1.056
  824SOL  OW    2470   1.372   3.534   1.414
  824SOL  HW1   2471   1.304   3.583   1.468
  824SOL  HW2   2472   1.390   3.445   1.456
  825SOL  OW    2473   1.402   3.540   1.682
  825SOL  HW1   2474   1.372   3.600   1.607
  825SOL  HW2   2475   1.344   3.459   1.686
  826SOL  OW    2476   1.349   3.510   1.975
  826SOL  HW1   2477   1.427   3.526   1.915
  826SOL  HW2   2478   1.359   3.565   2.058
  827SOL  OW    2479   1.374   3.574   2.308
  827SOL  HW1   2480   1.468   3.596   2.336
  827SOL  HW2   2481   1.359   3.606   2.215
  828SOL  OW    2482   1.363   3.507   2.602
  828SOL  HW1   2483   1.295   3.553   2.547
  828SOL  HW2   2484   1.340   3.516   2.699
  829SOL  OW    2485   1.410   3.529   2.945
  829SOL  HW1   2486   1.454   3.442   2.923
  829SOL  HW2   2487   1.429   3.554   3.040
  830SOL  OW    2488   1.409   3.507   3.239
  830SOL  HW1   2489   1.342   3.433   3.236
  830SOL  HW2   2490   1.497   3.474   3.204
  831SOL  OW    2491   1.421   3.531   3.503
  831SOL  HW1   2492   1.482   3.610   3.509
  831SOL  HW2   2493   1.417   3.499   3.408
  832SOL  OW    2494   1.418   3.569   3.848
  832SOL  HW1   2495   1.426   3.469   3.848
  832SOL  HW2   2496   1.422   3.603   3.754
  833SOL  OW    2497   1.389   3.823   0.179
  833SOL  HW1   2498   1.308   3.865   0.220
  833SOL  HW2   2499   1.366   3.732   0.145
  834SOL  OW    2500   1.385   3.809   0.476
  834SOL  HW1   2501   1.311   3.789   0.541
  834SOL  HW2   2502   1.360   3.889   0.421
  835SOL  OW    2503   1.421   3.872   0.751
  835SOL  HW1   2504   1.430   3.804   0.679
  835SOL  HW2   2505   1.506   3.925   0.759
  836SOL  OW    2506   1.349   3.881   1.112
  836SOL  HW1   2507   1.435   3.912   1.071
  836SOL  HW2   2508   1.290   3.960   1.127
  837SOL  OW    2509   1.387   3.858   1.382
  837SOL  HW1   2510   1.298   3.824   1.351
  837SOL  HW2   2511   1.456   3.786   1.370
  838SOL  OW    2512   1.378   3.816   1.660
  838SOL  HW1   2513   1.399   3.901   1.612
  838SOL  HW2   2514   1.370   3.834   1.758
  839SOL  OW    2515   1.363   3.873   1.972
  839SOL  HW1   2516   1.312   3.958   1.958
  839SOL  HW2   2517   1.322   3.800   1.917
  840SOL  OW    2518   1.363   3.850   2.285
  840SOL  HW1   2519   1.343   3.754   2.263
  840SOL  HW2   2520   1.279   3.904   2.279
  841SOL  OW    2521   1.358   3.851   2.605
  841SOL  HW1   2522   1.454   3.829   2.618
  841SOL  HW2   2523   1.348   3.950   2.592
  842SOL  OW    2524   1.395   3.879   2.895
  842SOL  HW1   2525   1.351   3.893   2.984
  842SOL  HW2   2526   1.472   3.941   2.886
  843SOL  OW    2527   1.418   3.878   3.257
  843SOL  HW1   2528   1.344   3.924   3.207
  843SOL  HW2   2529   1.445   3.935   3.335
  844SOL  OW    2530   1.395   3.856   3.550
  844SOL  HW1   2531   1.303   3.879   3.580
  844SOL  HW2   2532   1.459   3.867   3.626
  845SOL  OW    2533   1.400   3.807   3.883
  845SOL  HW1   2534   1.399   3.904   3.910
  845SOL  HW2   2535   1.466   3.758   3.939
  846SOL  OW    2536   1.699   0.176   0.144
  846SOL  HW1   2537   1.739   0.162   0.235
  846SOL  HW2   2538   1.772   0.196   0.079
  847SOL  OW    2539   1.653   0.155   0.462
  847SOL  HW1   2540   1.684   0.142   0.368
  847SOL  HW2   2541   1.568   0.207   0.463
  848SOL  OW    2542   1.687   0.141   0.749
  848SOL  HW1   2543   1.643   0.228   0.772
  848SOL  HW2   2544   1.786   0.154   0.746
  849SOL  OW    2545   1.695   0.144   1.115
  849SOL  HW1   2546   1.660   0.217   1.056
  849SOL  HW2   2547   1.620   0.109   1.172
  850SOL  OW    2548   1.666   0.139   1.368
  850SOL  HW1   2549   1.754   0.096   1.350
  850SOL  HW2   2550   1.652   0.215   1.304
  851SOL  OW    2551   1.696   0.154   1.704
  851SOL  HW1   2552   1.658   0.158   1.611
  851SOL  HW2   2553   1.700   0.058   1.734
  852SOL  OW    2554   1.728   0.137   2.015
  852SOL  HW1   2555   1.739   0.123   2.114
  852SOL  HW2   2556   1.750   0.052   1.967
  853SOL  OW    2557   1.654   0.135   2.305
  853SOL  HW1   2558   1.616   0.220   2.341
  853SOL  HW2   2559   1.726   0.156   2.238
  854SOL  OW    2560   1.655   0.163   2.630
  854SOL  HW1   2561   1.743   0.126   2.602
  854SOL  HW2   2562   1.657   0.263   2.623
  855SOL  OW    2563   1.712   0.155   2.931
  855SOL  HW1   2564   1.772   0.089   2.886
  855SOL  HW2   2565   1.633   0.108   2.970
  856SOL  OW    2566   1.684   0.117   3.199
  856SOL  HW1   2567   1.698   0.216   3.204
  856SOL  HW2   2568   1.687   0.088   3.103
  857SOL  OW    2569   1.705   0.193   3.500
  857SOL  HW1   2570   1.677   0.251   3.422
  857SOL  HW2   2571   1.791   0.227   3.537
  858SOL  OW    2572   1.697   0.174   3.872
  858SOL  HW1   2573   1.681   0.272   3.886
  858SOL  HW2   2574   1.610   0.125   3.877
  859SOL  OW    2575   1.696   0.471   0.170
  859SOL  HW1   2576   1.676   0.541   0.239
  859SOL  HW2   2577   1.784   0.492   0.126
  860SOL  OW    2578   1.721   0.431   0.496
  860SOL  HW1   2579   1.811   0.422   0.539
  860SOL  HW2   2580   1.722   0.385   0.407
  861SOL  OW    2581   1.654   0.488   0.735
  861SOL  HW1   2582   1.560   0.486   0.702
  861SOL  HW2   2583   1.716   0.507   0.659
  862SOL  OW    2584   1.668   0.422   1.073
  862SOL  HW1   2585   1.602   0.469   1.131
  862SOL  HW2   2586   1.728   0.365   1.129
  863SOL  OW    2587   1.679   0.435   1.381
  863SOL  HW1   2588   1.601   0.475   1.428
  863SOL  HW2   2589   1.760   0.491   1.397
  864SOL  OW    2590   1.684   0.483   1.724
  864SOL  HW1   2591   1.776   0.519   1.706
  864SOL  HW2   2592   1.623   0.509   1.649
  865SOL  OW    2593   1.705   0.431   1.984
  865SOL  HW1   2594   1.780   0.370   2.006
  865SOL  HW2   2595   1.619   0.394   2.020
  866SOL  OW    2596   1.725   0.429   2.300
  866SOL  HW1   2597   1.651   0.428   2.233
  866SOL  HW2   2598   1.687   0.432   2.392
  867SOL  OW    2599   1.728   0.498   2.608
  867SOL  HW1   2600   1.686   0.550   2.683
  867SOL  HW2   2601   1.672   0.508   2.526
  868SOL  OW    2602   1.706   0.458   2.943
  868SOL  HW1   2603   1.780   0.522   2.921
  868SOL  HW2   2604   1.619   0.495   2.909
  869SOL  OW    2605   1.655   0.433   3.240
  869SOL  HW1   2606   1.693   0.407   3.328
  869SOL  HW2   2607   1.707   0.390   3.167
  870SOL  OW    2608   1.671   0.475   3.527
  870SOL  HW1   2609   1.715   0.532   3.596
  870SOL  HW2   2610   1.738   0.449   3.457
  871SOL  OW    2611   1.723   0.487   3.846
  871SOL  HW1   2612   1.661   0.436   3.904
  871SOL  HW2   2613   1.759   0.427   3.774
  872SOL  OW    2614   1.714   0.751   0.153
  872SOL  HW1   2615   1.673   0.660   0.151
  872SOL  HW2   2616   1.771   0.759   0.235
  873SOL  OW    2617   1.668   0.798   0.487
  873SOL  HW1   2618   1.674   0.804   0.388
  873SOL  HW2   2619   1.712   0.878   0.528
  874SOL  OW    2620   1.724   0.799   0.806
  874SOL  HW1   2621   1.752   0.715   0.852
  874SOL  HW2   2622   1.660   0.779   0.733
  875SOL  OW    2623   1.671   0.804   1.083
  875SOL  HW1   2624   1.623   0.857   1.013
  875SOL  HW2   2625   1.730   0.736   1.039
  876SOL  OW    2626   1.686   0.774   1.372
  876SOL  HW1   2627   1.693   0.684   1.415
  876SOL  HW2   2628   1.677   0.844   1.442
  877SOL  OW    2629   1.675   0.749   1.659
  877SOL  HW1   2630   1.611   0.743   1.735
  877SOL  HW2   2631   1.769   0.736   1.693
  878SOL  OW    2632   1.692   0.800   2.010
  878SOL  HW1   2633   1.691   0.890   2.055
  878SOL  HW2   2634   1.785   0.764   2.009
  879SOL  OW    2635   1.694   0.764   2.305
  879SOL  HW1   2636   1.623   0.713   2.354
  879SOL  HW2   2637   1.754   0.809   2.371
  880SOL  OW    2638   1.669   0.795   2.591
  880SOL  HW1   2639   1.622   0.709   2.611
  880SOL  HW2   2640   1.606   0.859   2.547
  881SOL  OW    2641   1.710   0.790   2.929
  881SOL  HW1   2642   1.665   0.706   2.897
  881SOL  HW2   2643   1.645   0.844   2.983
  882SOL  OW    2644   1.721   0.753   3.261
  882SOL  HW1   2645   1.734   0.660   3.297
  882SOL  HW2   2646   1.779   0.766   3.181
  883SOL  OW    2647   1.711   0.793   3.552
  883SOL  HW1   2648   1.625   0.745   3.569
  883SOL  HW2   2649   1.710   0.880   3.601
  884SOL  OW    2650   1.720   0.809   3.840
  884SOL  HW1   2651   1.753   0.902   3.854
  884SOL  HW2   2652   1.798   0.748   3.824
  885SOL  OW    2653   1.717   1.096   0.150
  885SOL  HW1   2654   1.763   1.029   0.092
  885SOL  HW2   2655   1.783   1.166   0.179
  886SOL  OW    2656   1.726   1.068   0.467
  886SOL  HW1   2657   1.791   1.097   0.396
  886SOL  HW2   2658   1.682   1.149   0.506
  887SOL  OW    2659   1.661   1.055   0.796
  887SOL  HW1   2660   1.565   1.054   0.825
  887SOL  HW2   2661   1.670   1.009   0.708
  888SOL  OW    2662   1.684   1.068   1.057
  888SOL  HW1   2663   1.589   1.057   1.028
  888SOL  HW2   2664   1.687   1.106   1.149
  889SOL  OW    2665   1.692   1.101   1.416
  889SOL  HW1   2666   1.768   1.150   1.373
  889SOL  HW2   2667   1.727   1.024   1.469
  890SOL  OW    2668   1.658   1.083   1.690
  890SOL  HW1   2669   1.630   1.178   1.674
  890SOL  HW2   2670   1.758   1.077   1.689
  891SOL  OW    2671   1.701   1.073   1.992
  891SOL  HW1   2672   1.790   1.044   1.955
  891SOL  HW2   2673   1.682   1.022   2.076
  892SOL  OW    2674   1.690   1.083   2.308
  892SOL  HW1   2675   1.680   0.992   2.346
  892SOL  HW2   2676   1.785   1.114   2.319
  893SOL  OW    2677   1.690   1.102   2.635
  893SOL  HW1   2678   1.659   1.008   2.648
  893SOL  HW2   2679   1.667   1.156   2.716
  894SOL  OW    2680   1.680   1.101   2.951
  894SOL  HW1   2681   1.773   1.065   2.948
  894SOL  HW2   2682   1.625   1.045   3.014
  895SOL  OW    2683   1.665   1.084   3.214
  895SOL  HW1   2684   1.572   1.067   3.248
  895SOL  HW2   2685   1.679   1.182   3.203
  896SOL  OW    2686   1.711   1.056   3.552
  896SOL  HW1   2687   1.619   1.024   3.531
  896SOL  HW2   2688   1.766   1.058   3.468
  897SOL  OW    2689   1.673   1.078   3.882
  897SOL  HW1   2690   1.733   1.015   3.932
  897SOL  HW2   2691   1.590   1.095   3.936
  898SOL  OW    2692   1.683   1.415   0.193
  898SOL  HW1   2693   1.770   1.450   0.160
  898SOL  HW2   2694   1.608   1.466   0.151
  899SOL  OW    2695   1.722   1.358   0.487
  899SOL  HW1   2696   1.698   1.264   0.510
  899SOL  HW2   2697   1.793   1.391   0.550
  900SOL  OW    2698   1.655   1.376   0.799
  900SOL  HW1   2699   1.750   1.395   0.775
  900SOL  HW2   2700   1.595   1.408   0.726
  901SOL  OW    2701   1.707   1.387   1.068
  901SOL  HW1   2702   1.728   1.310   1.128
  901SOL  HW2   2703   1.609   1.394   1.055
  902SOL  OW    2704   1.717   1.401   1.382
  902SOL  HW1   2705   1.809   1.421   1.417
  902SOL  HW2   2706   1.721   1.321   1.322
  903SOL  OW    2707   1.724   1.363   1.666
  903SOL  HW1   2708   1.769   1.298   1.727
  903SOL  HW2   2709   1.634   1.327   1.640
  904SOL  OW    2710   1.704   1.422   1.980
  904SOL  HW1   2711   1.629   1.402   2.043
  904SOL  HW2   2712   1.670   1.417   1.886
  905SOL  OW    2713   1.672   1.356   2.337
  905SOL  HW1   2714   1.731   1.417   2.284
  905SOL  HW2   2715   1.602   1.318   2.276
  906SOL  OW    2716   1.670   1.385   2.655
  906SOL  HW1   2717   1.669   1.438   2.739
  906SOL  HW2   2718   1.622   1.299   2.669
  907SOL  OW    2719   1.653   1.389   2.924
  907SOL  HW1   2720   1.676   1.468   2.867
  907SOL  HW2   2721   1.555   1.370   2.918
  908SOL  OW    2722   1.717   1.373   3.224
  908SOL  HW1   2723   1.763   1.413   3.303
  908SOL  HW2   2724   1.785   1.336   3.161
  909SOL  OW    2725   1.666   1.404   3.561
  909SOL  HW1   2726   1.632   1.435   3.650
  909SOL  HW2   2727   1.673   1.304   3.562
  910SOL  OW    2728   1.663   1.376   3.878
  910SOL  HW1   2729   1.694   1.386   3.783
  910SOL  HW2   2730   1.566   1.355   3.879
  911SOL  OW    2731   1.653   1.676   0.158
  911SOL  HW1   2732   1.646   1.639   0.066
  911SOL  HW2   2733   1.736   1.730   0.166
  912SOL  OW    2734   1.679   1.674   0.458
  912SOL  HW1   2735   1.770   1.716   0.451
  912SOL  HW2   2736   1.610   1.745   0.472
  913SOL  OW    2737   1.667   1.695   0.786
  913SOL  HW1   2738   1.599   1.687   0.713
  913SOL  HW2   2739   1.753   1.654   0.755
  914SOL  OW    2740   1.698   1.660   1.104
  914SOL  HW1   2741   1.687   1.755   1.076
  914SOL  HW2   2742   1.675   1.599   1.028
  915SOL  OW    2743   1.666   1.713   1.373
  915SOL  HW1   2744   1.587   1.747   1.323
  915SOL  HW2   2745   1.675   1.763   1.460
  916SOL  OW    2746   1.715   1.669   1.667
  916SOL  HW1   2747   1.807   1.688   1.634
  916SOL  HW2   2748   1.677   1.750   1.711
  917SOL  OW    2749   1.692   1.655   1.978
  917SOL  HW1   2750   1.687   1.741   1.927
  917SOL  HW2   2751   1.745   1.589   1.926
  918SOL  OW    2752   1.710   1.719   2.274
  918SOL  HW1   2753   1.673   1.762   2.192
  918SOL  HW2   2754   1.669   1.629   2.287
  919SOL  OW    2755   1.723   1.716   2.645
  919SOL  HW1   2756   1.667   1.735   2.564
  919SOL  HW2   2757   1.726   1.798   2.703
  920SOL  OW    2758   1.708   1.706   2.925
  920SOL  HW1   2759   1.760   1.674   2.846
  920SOL  HW2   2760   1.623   1.749   2.894
  921SOL  OW    2761   1.705   1.726   3.199
  921SOL  HW1   2762   1.715   1.757   3.104
  921SOL  HW2   2763   1.689   1.805   3.258
  922SOL  OW    2764   1.678   1.658   3.574
  922SOL  HW1   2765   1.600   1.603   3.544
  922SOL  HW2   2766   1.657   1.755   3.560
  923SOL  OW    2767   1.688   1.706   3.873
  923SOL  HW1   2768   1.605   1.676   3.920
  923SOL  HW2   2769   1.681   1.804   3.852
  924SOL  OW    2770   1.732   1.973   0.178
  924SOL  HW1   2771   1.792   1.928   0.112
  924SOL  HW2   2772   1.784   2.039   0.231
  925SOL  OW    2773   1.723   1.964   0.482
  925SOL  HW1   2774   1.729   1.971   0.581
  925SOL  HW2   2775   1.710   2.055   0.443
  926SOL  OW    2776   1.681   2.012   0.770
  926SOL  HW1   2777   1.587   2.033   0.744
  926SOL  HW2   2778   1.689   2.017   0.870
  927SOL  OW    2779   1.673   1.971   1.046
  927SOL  HW1   2780   1.678   1.900   1.117
  927SOL  HW2   2781   1.596   2.032   1.065
  928SOL  OW    2782   1.661   2.011   1.373
  928SOL  HW1   2783   1.633   2.098   1.414
  928SOL  HW2   2784   1.650   1.937   1.440
  929SOL  OW    2785   1.670   2.015   1.707
  929SOL  HW1   2786   1.610   2.066   1.770
  929SOL  HW2   2787   1.737   1.963   1.760
  930SOL  OW    2788   1.695   2.035   1.991
  930SOL  HW1   2789   1.784   1.995   1.967
  930SOL  HW2   2790   1.682   2.119   1.939
  931SOL  OW    2791   1.719   1.966   2.327
  931SOL  HW1   2792   1.683   2.052   2.290
  931SOL  HW2   2793   1.812   1.981   2.362
  932SOL  OW    2794   1.731   2.028   2.622
  932SOL  HW1   2795   1.678   2.095   2.570
  932SOL  HW2   2796   1.800   2.075   2.677
  933SOL  OW    2797   1.702   1.988   2.937
  933SOL  HW1   2798   1.688   1.892   2.913
  933SOL  HW2   2799   1.627   2.043   2.902
  934SOL  OW    2800   1.714   2.040   3.230
  934SOL  HW1   2801   1.723   2.137   3.251
  934SOL  HW2   2802   1.644   2.000   3.289
  935SOL  OW    2803   1.657   2.008   3.508
  935SOL  HW1   2804   1.730   1.949   3.473
  935SOL  HW2   2805   1.682   2.042   3.598
  936SOL  OW    2806   1.672   1.986   3.865
  936SOL  HW1   2807   1.617   2.069   3.852
  936SOL  HW2   2808   1.695   1.976   3.961
  937SOL  OW    2809   1.667   2.281   0.117
  937SOL  HW1   2810   1.621   2.356   0.071
  937SOL  HW2   2811   1.618   2.259   0.202
  938SOL  OW    2812   1.722   2.323   0.425
  938SOL  HW1   2813   1.734   2.378   0.342
  938SOL  HW2   2814   1.692   2.382   0.499
  939SOL  OW    2815   1.655   2.312   0.752
  939SOL  HW1   2816   1.573   2.321   0.809
  939SOL  HW2   2817   1.662   2.392   0.692
  940SOL  OW    2818   1.700   2.302   1.111
  940SOL  HW1   2819   1.680   2.356   1.193
  940SOL  HW2   2820   1.615   2.282   1.062
  941SOL  OW    2821   1.675   2.322   1.349
  941SOL  HW1   2822   1.658   2.409   1.303
  941SOL  HW2   2823   1.771   2.297   1.336
  942SOL  OW    2824   1.729   2.346   1.711
  942SOL  HW1   2825   1.647   2.364   1.765
  942SOL  HW2   2826   1.723   2.255   1.672
  943SOL  OW    2827   1.690   2.285   2.025
  943SOL  HW1   2828   1.625   2.210   2.016
  943SOL  HW2   2829   1.639   2.370   2.041
  944SOL  OW    2830   1.711   2.285   2.304
  944SOL  HW1   2831   1.638   2.270   2.238
  944SOL  HW2   2832   1.799   2.261   2.262
  945SOL  OW    2833   1.689   2.334   2.630
  945SOL  HW1   2834   1.764   2.328   2.564
  945SOL  HW2   2835   1.723   2.307   2.720
  946SOL  OW    2836   1.704   2.320   2.905
  946SOL  HW1   2837   1.721   2.265   2.823
  946SOL  HW2   2838   1.774   2.300   2.973
  947SOL  OW    2839   1.682   2.271   3.254
  947SOL  HW1   2840   1.643   2.223   3.332
  947SOL  HW2   2841   1.621   2.262   3.175
  948SOL  OW    2842   1.687   2.303   3.518
  948SOL  HW1   2843   1.652   2.340   3.432
  948SOL  HW2   2844   1.663   2.364   3.593
  949SOL  OW    2845   1.669   2.315   3.825
  949SOL  HW1   2846   1.662   2.329   3.726
  949SOL  HW2   2847   1.641   2.398   3.873
  950SOL  OW    2848   1.657   2.637   0.144
  950SOL  HW1   2849   1.730   2.669   0.083
  950SOL  HW2   2850   1.575   2.692   0.131
  951SOL  OW    2851   1.683   2.610   0.487
  951SOL  HW1   2852   1.653   2.598   0.581
  951SOL  HW2   2853   1.679   2.522   0.440
  952SOL  OW    2854   1.678   2.636   0.804
  952SOL  HW1   2855   1.656   2.723   0.760
  952SOL  HW2   2856   1.599   2.575   0.799
  953SOL  OW    2857   1.705   2.610   1.097
  953SOL  HW1   2858   1.738   2.700   1.125
  953SOL  HW2   2859   1.656   2.618   1.010
  954SOL  OW    2860   1.689   2.609   1.387
  954SOL  HW1   2861   1.709   2.589   1.291
  954SOL  HW2   2862   1.633   2.535   1.425
  955SOL  OW    2863   1.678   2.584   1.685
  955SOL  HW1   2864   1.605   2.564   1.751
  955SOL  HW2   2865   1.650   2.660   1.627
  956SOL  OW    2866   1.662   2.608   2.005
  956SOL  HW1   2867   1.659   2.536   1.935
  956SOL  HW2   2868   1.750   2.655   2.000
  957SOL  OW    2869   1.727   2.578   2.317
  957SOL  HW1   2870   1.802   2.537   2.369
  957SOL  HW2   2871   1.639   2.545   2.353
  958SOL  OW    2872   1.689   2.577   2.595
  958SOL  HW1   2873   1.710   2.662   2.547
  958SOL  HW2   2874   1.751   2.505   2.565
  959SOL  OW    2875   1.662   2.593   2.905
  959SOL  HW1   2876   1.669   2.533   2.825
  959SOL  HW2   2877   1.747   2.644   2.916
  960SOL  OW    2878   1.684   2.618   3.191
  960SOL  HW1   2879   1.718   2.640   3.099
  960SOL  HW2   2880   1.617   2.686   3.219
  961SOL  OW    2881   1.665   2.583   3.542
  961SOL  HW1   2882   1.755   2.579   3.498
  961SOL  HW2   2883   1.594   2.561   3.476
  962SOL  OW    2884   1.679   2.619   3.824
  962SOL  HW1   2885   1.761   2.588   3.871
  962SOL  HW2   2886   1.624   2.675   3.886
  963SOL  OW    2887   1.654   2.958   0.123
  963SOL  HW1   2888   1.628   2.973   0.027
  963SOL  HW2   2889   1.572   2.940   0.177
  964SOL  OW    2890   1.662   2.895   0.500
  964SOL  HW1   2891   1.731   2.824   0.483
  964SOL  HW2   2892   1.571   2.858   0.484
  965SOL  OW    2893   1.702   2.932   0.808
  965SOL  HW1   2894   1.695   2.939   0.908
  965SOL  HW2   2895   1.632   2.990   0.766
  966SOL  OW    2896   1.659   2.961   1.053
  966SOL  HW1   2897   1.565   2.936   1.032
  966SOL  HW2   2898   1.664   3.058   1.077
  967SOL  OW    2899   1.702   2.917   1.375
  967SOL  HW1   2900   1.737   2.831   1.337
  967SOL  HW2   2901   1.603   2.909   1.390
  968SOL  OW    2902   1.727   2.895   1.732
  968SOL  HW1   2903   1.747   2.811   1.782
  968SOL  HW2   2904   1.631   2.894   1.703
  969SOL  OW    2905   1.683   2.935   2.037
  969SOL  HW1   2906   1.779   2.949   2.016
  969SOL  HW2   2907   1.638   2.888   1.961
  970SOL  OW    2908   1.657   2.957   2.313
  970SOL  HW1   2909   1.627   2.958   2.218
  970SOL  HW2   2910   1.673   2.863   2.342
  971SOL  OW    2911   1.709   2.895   2.618
  971SOL  HW1   2912   1.668   2.901   2.709
  971SOL  HW2   2913   1.665   2.962   2.557
  972SOL  OW    2914   1.706   2.920   2.895
  972SOL  HW1   2915   1.740   3.012   2.876
  972SOL  HW2   2916   1.619   2.926   2.944
  973SOL  OW    2917   1.672   2.951   3.194
  973SOL  HW1   2918   1.733   3.005   3.252
  973SOL  HW2   2919   1.706   2.858   3.187
  974SOL  OW    2920   1.709   2.963   3.499
  974SOL  HW1   2921   1.672   3.020   3.573
  974SOL  HW2   2922   1.683   3.002   3.411
  975SOL  OW    2923   1.665   2.937   3.811
  975SOL  HW1   2924   1.671   2.859   3.748
  975SOL  HW2   2925   1.578   2.984   3.799
  976SOL  OW    2926   1.699   3.245   0.161
  976SOL  HW1   2927   1.628   3.206   0.219
  976SOL  HW2   2928   1.698   3.202   0.071
  977SOL  OW    2929   1.682   3.247   0.469
  977SOL  HW1   2930   1.706   3.151   0.485
  977SOL  HW2   2931   1.706   3.301   0.550
  978SOL  OW    2932   1.669   3.236   0.800
  978SOL  HW1   2933   1.749   3.194   0.843
  978SOL  HW2   2934   1.612   3.164   0.759
  979SOL  OW    2935   1.706   3.229   1.063
  979SOL  HW1   2936   1.617   3.248   1.104
  979SOL  HW2   2937   1.743   3.312   1.023
  980SOL  OW    2938   1.659   3.210   1.346
  980SOL  HW1   2939   1.590   3.266   1.300
  980SOL  HW2   2940   1.635   3.114   1.337
  981SOL  OW    2941   1.731   3.209   1.717
  981SOL  HW1   2942   1.769   3.283   1.772
  981SOL  HW2   2943   1.660   3.162   1.770
  982SOL  OW    2944   1.666   3.213   1.993
  982SOL  HW1   2945   1.692   3.156   1.916
  982SOL  HW2   2946   1.585   3.175   2.038
  983SOL  OW    2947   1.678   3.255   2.344
  983SOL  HW1   2948   1.719   3.321   2.408
  983SOL  HW2   2949   1.742   3.179   2.329
  984SOL  OW    2950   1.722   3.203   2.638
  984SOL  HW1   2951   1.646   3.212   2.702
  984SOL  HW2   2952   1.794   3.146   2.678
  985SOL  OW    2953   1.664   3.264   2.925
  985SOL  HW1   2954   1.671   3.306   3.015
  985SOL  HW2   2955   1.641   3.333   2.857
  986SOL  OW    2956   1.679   3.203   3.192
  986SOL  HW1   2957   1.664   3.302   3.203
  986SOL  HW2   2958   1.600   3.153   3.226
  987SOL  OW    2959   1.672   3.264   3.562
  987SOL  HW1   2960   1.698   3.321   3.640
  987SOL  HW2   2961   1.697   3.169   3.581
  988SOL  OW    2962   1.730   3.199   3.854
  988SOL  HW1   2963   1.633   3.222   3.847
  988SOL  HW2   2964   1.776   3.224   3.768
  989SOL  OW    2965   1.673   3.542   0.139
  989SOL  HW1   2966   1.626   3.497   0.063
  989SOL  HW2   2967   1.734   3.477   0.184
  990SOL  OW    2968   1.675   3.544   0.436
  990SOL  HW1   2969   1.701   3.628   0.388
  990SOL  HW2   2970   1.634   3.568   0.525
  991SOL  OW    2971   1.690   3.551   0.739
  991SOL  HW1   2972   1.634   3.522   0.661
  991SOL  HW2   2973   1.787   3.545   0.715
  992SOL  OW    2974   1.727   3.539   1.102
  992SOL  HW1   2975   1.686   3.565   1.190
  992SOL  HW2   2976   1.673   3.579   1.028
  993SOL  OW    2977   1.705   3.555   1.402
  993SOL  HW1   2978   1.703   3.614   1.321
  993SOL  HW2   2979   1.649   3.474   1.385
  994SOL  OW    2980   1.722   3.548   1.675
  994SOL  HW1   2981   1.700   3.468   1.731
  994SOL  HW2   2982   1.820   3.547   1.654
  995SOL  OW    2983   1.660   3.547   1.965
  995SOL  HW1   2984   1.675   3.622   1.901
  995SOL  HW2   2985   1.595   3.482   1.926
  996SOL  OW    2986   1.672   3.503   2.312
  996SOL  HW1   2987   1.734   3.530   2.385
  996SOL  HW2   2988   1.694   3.411   2.281
  997SOL  OW    2989   1.665   3.547   2.639
  997SOL  HW1   2990   1.750   3.546   2.692
  997SOL  HW2   2991   1.627   3.455   2.635
  998SOL  OW    2992   1.718   3.523   2.927
  998SOL  HW1   2993   1.815   3.538   2.907
  998SOL  HW2   2994   1.708   3.495   3.022
  999SOL  OW    2995   1.697   3.536   3.243
  999SOL  HW1   2996   1.609   3.570   3.210
  999SOL  HW2   2997   1.699   3.437   3.237
 1000SOL  OW    2998   1.669   3.577   3.506
 1000SOL  HW1   2999   1.686   3.592   3.409
 1000SOL  HW2   3000   1.574   3.550   3.520
 1001SOL  OW    3001   1.719   3.546   3.826
 1001SOL  HW1   3002   1.723   3.447   3.839
 1001SOL  HW2   3003   1.751   3.592   3.908
 1002SOL  OW    3004   1.712   3.813   0.176
 1002SOL  HW1   3005   1.680   3.874   0.248
 1002SOL  HW2   3006   1.748   3.867   0.100
 1003SOL  OW    3007   1.700   3.815   0.428
 1003SOL  HW1   3008   1.794   3.784   0.436
 1003SOL  HW2   3009   1.689   3.904   0.473
 1004SOL  OW    3010   1.712   3.830   0.800
 1004SOL  HW1   3011   1.742   3.835   0.705
 1004SOL  HW2   3012   1.666   3.915   0.825
 1005SOL  OW    3013   1.713   3.862   1.059
 1005SOL  HW1   3014   1.670   3.931   1.001
 1005SOL  HW2   3015   1.812   3.863   1.044
 1006SOL  OW    3016   1.709   3.882   1.352
 1006SOL  HW1   3017   1.626   3.937   1.346
 1006SOL  HW2   3018   1.788   3.943   1.365
 1007SOL  OW    3019   1.678   3.825   1.684
 1007SOL  HW1   3020   1.767   3.868   1.699
 1007SOL  HW2   3021   1.629   3.818   1.771
 1008SOL  OW    3022   1.712   3.844   2.006
 1008SOL  HW1   3023   1.613   3.829   1.997
 1008SOL  HW2   3024   1.738   3.925   1.953
 1009SOL  OW    3025   1.677   3.817   2.289
 1009SOL  HW1   3026   1.627   3.888   2.240
 1009SOL  HW2   3027   1.737   3.768   2.225
 1010SOL  OW    3028   1.721   3.854   2.606
 1010SOL  HW1   3029   1.677   3.848   2.695
 1010SOL  HW2   3030   1.707   3.946   2.568
 1011SOL  OW    3031   1.716   3.811   2.903
 1011SOL  HW1   3032   1.618   3.826   2.920
 1011SOL  HW2   3033   1.763   3.803   2.991
 1012SOL  OW    3034   1.671   3.885   3.247
 1012SOL  HW1   3035   1.653   3.868   3.344
 1012SOL  HW2   3036   1.585   3.879   3.197
 1013SOL  OW    3037   1.702   3.807   3.513
 1013SOL  HW1   3038   1.797   3.830   3.535
 1013SOL  HW2   3039   1.646   3.816   3.595
 1014SOL  OW    3040   1.703   3.837   3.880
 1014SOL  HW1   3041   1.760   3.841   3.962
 1014SOL  HW2   3042   1.608   3.822   3.906
 1015SOL  OW    3043   2.021   0.150   0.174
 1015SOL  HW1   3044   2.033   0.245   0.202
 1015SOL  HW2   3045   2.109   0.103   0.179
 1016SOL  OW    3046   2.038   0.151   0.473
 1016SOL  HW1   3047   2.061   0.248   0.468
 1016SOL  HW2   3048   1.976   0.135   0.550
 1017SOL  OW    3049   2.033   0.134   0.800
 1017SOL  HW1   3050   2.041   0.188   0.884
 1017SOL  HW2   3051   2.125   0.109   0.768
 1018SOL  OW    3052   1.968   0.166   1.100
 1018SOL  HW1   3053   2.019   0.144   1.016
 1018SOL  HW2   3054   1.874   0.132   1.091
 1019SOL  OW    3055   2.009   0.153   1.394
 1019SOL  HW1   3056   2.092   0.209   1.385
 1019SOL  HW2   3057   1.928   0.212   1.386
 1020SOL  OW    3058   1.972   0.131   1.674
 1020SOL  HW1   3059   2.036   0.161   1.603
 1020SOL  HW2   3060   2.017   0.066   1.735
 1021SOL  OW    3061   2.008   0.149   1.980
 1021SOL  HW1   3062   2.002   0.187   1.887
 1021SOL  HW2   3063   1.933   0.085   1.994
 1022SOL  OW    3064   2.031   0.144   2.303
 1022SOL  HW1   3065   1.969   0.188   2.369
 1022SOL  HW2   3066   2.023   0.044   2.312
 1023SOL  OW    3067   1.993   0.128   2.634
 1023SOL  HW1   3068   1.927   0.122   2.709
 1023SOL  HW2   3069   2.076   0.079   2.659
 1024SOL  OW    3070   1.996   0.115   2.960
 1024SOL  HW1   3071   2.006   0.114   3.060
 1024SOL  HW2   3072   2.061   0.179   2.921
 1025SOL  OW    3073   2.025   0.172   3.260
 1025SOL  HW1   3074   2.056   0.195   3.168
 1025SOL  HW2   3075   1.942   0.117   3.255
 1026SOL  OW    3076   2.033   0.141   3.547
 1026SOL  HW1   3077   2.094   0.082   3.600
 1026SOL  HW2   3078   1.968   0.185   3.609
 1027SOL  OW    3079   2.009   0.135   3.824
 1027SOL  HW1   3080   2.032   0.047   3.783
 1027SOL  HW2   3081   1.911   0.152   3.814
 1028SOL  OW    3082   1.969   0.474   0.176
 1028SOL  HW1   3083   1.885   0.455   0.227
 1028SOL  HW2   3084   2.002   0.390   0.133
 1029SOL  OW    3085   2.021   0.447   0.438
 1029SOL  HW1   3086   2.046   0.376   0.372
 1029SOL  HW2   3087   2.067   0.430   0.525
 1030SOL  OW    3088   1.996   0.465   0.803
 1030SOL  HW1   3089   2.085   0.465   0.756
 1030SOL  HW2   3090   1.972   0.559   0.828
 1031SOL  OW    3091   2.030   0.495   1.105
 1031SOL  HW1   3092   2.001   0.540   1.190
 1031SOL  HW2   3093   2.067   0.404   1.126
 1032SOL  OW    3094   2.037   0.459   1.348
 1032SOL  HW1   3095   2.027   0.533   1.282
 1032SOL  HW2   3096   2.061   0.374   1.301
 1033SOL  OW    3097   1.967   0.453   1.673
 1033SOL  HW1   3098   1.931   0.360   1.665
 1033SOL  HW2   3099   1.951   0.502   1.587
 1034SOL  OW    3100   1.974   0.498   1.976
 1034SOL  HW1   3101   1.978   0.490   1.876
 1034SOL  HW2   3102   1.998   0.591   2.003
 1035SOL  OW    3103   2.037   0.482   2.319
 1035SOL  HW1   3104   1.999   0.412   2.379
 1035SOL  HW2   3105   2.116   0.445   2.270
 1036SOL  OW    3106   2.014   0.448   2.627
 1036SOL  HW1   3107   1.983   0.524   2.685
 1036SOL  HW2   3108   2.070   0.484   2.552
 1037SOL  OW    3109   1.975   0.497   2.907
 1037SOL  HW1   3110   2.060   0.543   2.884
 1037SOL  HW2   3111   1.945   0.440   2.830
 1038SOL  OW    3112   1.980   0.478   3.243
 1038SOL  HW1   3113   1.940   0.398   3.287
 1038SOL  HW2   3114   2.006   0.456   3.149
 1039SOL  OW    3115   1.996   0.472   3.511
 1039SOL  HW1   3116   2.096   0.476   3.508
 1039SOL  HW2   3117   1.967   0.399   3.573
 1040SOL  OW    3118   2.014   0.443   3.828
 1040SOL  HW1   3119   1.951   0.394   3.768
 1040SOL  HW2   3120   1.968   0.464   3.914
 1041SOL  OW    3121   1.973   0.756   0.140
 1041SOL  HW1   3122   2.007   0.849   0.128
 1041SOL  HW2   3123   1.984   0.729   0.236
 1042SOL  OW    3124   1.996   0.744   0.437
 1042SOL  HW1   3125   1.989   0.685   0.517
 1042SOL  HW2   3126   2.004   0.689   0.354
 1043SOL  OW    3127   2.003   0.740   0.784
 1043SOL  HW1   3128   2.093   0.748   0.827
 1043SOL  HW2   3129   1.956   0.659   0.821
 1044SOL  OW    3130   2.036   0.763   1.109
 1044SOL  HW1   3131   2.042   0.844   1.167
 1044SOL  HW2   3132   2.004   0.686   1.163
 1045SOL  OW    3133   1.968   0.733   1.402
 1045SOL  HW1   3134   2.001   0.803   1.339
 1045SOL  HW2   3135   2.016   0.740   1.490
 1046SOL  OW    3136   2.021   0.797   1.657
 1046SOL  HW1   3137   2.042   0.731   1.584
 1046SOL  HW2   3138   2.100   0.856   1.672
 1047SOL  OW    3139   2.022   0.759   1.984
 1047SOL  HW1   3140   1.940   0.710   2.013
 1047SOL  HW2   3141   2.065   0.710   1.909
 1048SOL  OW    3142   1.974   0.809   2.273
 1048SOL  HW1   3143   2.043   0.737   2.264
 1048SOL  HW2   3144   1.901   0.793   2.206
 1049SOL  OW    3145   2.026   0.780   2.634
 1049SOL  HW1   3146   1.950   0.836   2.602
 1049SOL  HW2   3147   2.083   0.754   2.556
 1050SOL  OW    3148   2.017   0.798   2.898
 1050SOL  HW1   3149   2.036   0.895   2.911
 1050SOL  HW2   3150   1.922   0.779   2.921
 1051SOL  OW    3151   1.960   0.777   3.219
 1051SOL  HW1   3152   2.042   0.793   3.165
 1051SOL  HW2   3153   1.954   0.846   3.291
 1052SOL  OW    3154   1.970   0.744   3.525
 1052SOL  HW1   3155   1.873   0.754   3.502
 1052SOL  HW2   3156   1.978   0.703   3.616
 1053SOL  OW    3157   1.966   0.734   3.879
 1053SOL  HW1   3158   2.008   0.699   3.963
 1053SOL  HW2   3159   1.871   0.702   3.874
 1054SOL  OW    3160   1.985   1.116   0.191
 1054SOL  HW1   3161   1.957   1.146   0.282
 1054SOL  HW2   3162   1.994   1.016   0.190
 1055SOL  OW    3163   1.971   1.094   0.470
 1055SOL  HW1   3164   1.903   1.035   0.512
 1055SOL  HW2   3165   2.054   1.041   0.451
 1056SOL  OW    3166   2.015   1.045   0.744
 1056SOL  HW1   3167   1.959   0.972   0.785
 1056SOL  HW2   3168   1.956   1.117   0.709
 1057SOL  OW    3169   1.966   1.085   1.116
 1057SOL  HW1   3170   1.991   1.164   1.172
 1057SOL  HW2   3171   2.015   1.004   1.148
 1058SOL  OW    3172   2.014   1.094   1.423
 1058SOL  HW1   3173   1.958   1.177   1.421
 1058SOL  HW2   3174   1.965   1.020   1.378
 1059SOL  OW    3175   2.014   1.040   1.722
 1059SOL  HW1   3176   2.057   1.066   1.635
 1059SOL  HW2   3177   1.952   1.113   1.751
 1060SOL  OW    3178   1.989   1.037   2.001
 1060SOL  HW1   3179   1.934   1.119   1.985
 1060SOL  HW2   3180   1.984   0.978   1.920
 1061SOL  OW    3181   2.035   1.058   2.307
 1061SOL  HW1   3182   1.976   1.138   2.312
 1061SOL  HW2   3183   1.990   0.981   2.353
 1062SOL  OW    3184   1.974   1.042   2.582
 1062SOL  HW1   3185   1.906   0.969   2.571
 1062SOL  HW2   3186   1.971   1.102   2.502
 1063SOL  OW    3187   2.018   1.106   2.895
 1063SOL  HW1   3188   1.932   1.124   2.848
 1063SOL  HW2   3189   2.016   1.146   2.986
 1064SOL  OW    3190   1.983   1.053   3.193
 1064SOL  HW1   3191   2.019   0.988   3.126
 1064SOL  HW2   3192   2.052   1.069   3.264
 1065SOL  OW    3193   2.004   1.093   3.550
 1065SOL  HW1   3194   2.055   1.031   3.490
 1065SOL  HW2   3195   2.068   1.136   3.615
 1066SOL  OW    3196   1.991   1.081   3.814
 1066SOL  HW1   3197   2.069   1.081   3.877
 1066SOL  HW2   3198   2.022   1.057   3.722
 1067SOL  OW    3199   1.972   1.419   0.175
 1067SOL  HW1   3200   1.976   1.321   0.192
 1067SOL  HW2   3201   1.913   1.437   0.097
 1068SOL  OW    3202   2.034   1.418   0.473
 1068SOL  HW1   3203   2.083   1.333   0.453
 1068SOL  HW2   3204   1.995   1.456   0.389
 1069SOL  OW    3205   2.034   1.378   0.730
 1069SOL  HW1   3206   1.991   1.461   0.695
 1069SOL  HW2   3207   2.058   1.318   0.653
 1070SOL  OW    3208   1.965   1.353   1.045
 1070SOL  HW1   3209   2.060   1.324   1.058
 1070SOL  HW2   3210   1.911   1.277   1.009
 1071SOL  OW    3211   1.988   1.401   1.408
 1071SOL  HW1   3212   1.943   1.472   1.355
 1071SOL  HW2   3213   1.966   1.413   1.505
 1072SOL  OW    3214   2.007   1.356   1.712
 1072SOL  HW1   3215   2.096   1.312   1.703
 1072SOL  HW2   3216   1.995   1.389   1.806
 1073SOL  OW    3217   1.988   1.346   1.982
 1073SOL  HW1   3218   2.014   1.304   1.895
 1073SOL  HW2   3219   2.003   1.280   2.056
 1074SOL  OW    3220   1.986   1.367   2.333
 1074SOL  HW1   3221   2.046   1.330   2.261
 1074SOL  HW2   3222   2.031   1.445   2.377
 1075SOL  OW    3223   2.021   1.400   2.587
 1075SOL  HW1   3224   2.040   1.457   2.666
 1075SOL  HW2   3225   2.016   1.304   2.614
 1076SOL  OW    3226   2.025   1.399   2.899
 1076SOL  HW1   3227   1.969   1.333   2.849
 1076SOL  HW2   3228   2.083   1.448   2.835
 1077SOL  OW    3229   2.012   1.383   3.226
 1077SOL  HW1   3230   2.016   1.283   3.230
 1077SOL  HW2   3231   1.949   1.417   3.296
 1078SOL  OW    3232   1.969   1.386   3.506
 1078SOL  HW1   3233   2.016   1.461   3.554
 1078SOL  HW2   3234   1.898   1.424   3.447
 1079SOL  OW    3235   1.973   1.355   3.882
 1079SOL  HW1   3236   1.904   1.302   3.931
 1079SOL  HW2   3237   2.061   1.345   3.929
 1080SOL  OW    3238   1.983   1.681   0.140
 1080SOL  HW1   3239   1.978   1.745   0.063
 1080SOL  HW2   3240   2.020   1.728   0.220
 1081SOL  OW    3241   2.032   1.697   0.495
 1081SOL  HW1   3242   2.113   1.664   0.447
 1081SOL  HW2   3243   2.054   1.714   0.591
 1082SOL  OW    3244   1.984   1.661   0.774
 1082SOL  HW1   3245   1.941   1.582   0.730
 1082SOL  HW2   3246   2.009   1.728   0.704
 1083SOL  OW    3247   1.988   1.716   1.107
 1083SOL  HW1   3248   1.919   1.784   1.135
 1083SOL  HW2   3249   2.071   1.730   1.160
 1084SOL  OW    3250   1.998   1.730   1.389
 1084SOL  HW1   3251   1.920   1.786   1.417
 1084SOL  HW2   3252   2.022   1.752   1.294
 1085SOL  OW    3253   1.982   1.691   1.655
 1085SOL  HW1   3254   2.007   1.771   1.600
 1085SOL  HW2   3255   1.884   1.672   1.644
 1086SOL  OW    3256   2.024   1.660   1.985
 1086SOL  HW1   3257   1.935   1.676   2.027
 1086SOL  HW2   3258   2.016   1.587   1.917
 1087SOL  OW    3259   2.005   1.656   2.274
 1087SOL  HW1   3260   1.983   1.638   2.178
 1087SOL  HW2   3261   2.051   1.576   2.313
 1088SOL  OW    3262   2.016   1.658   2.614
 1088SOL  HW1   3263   2.033   1.756   2.611
 1088SOL  HW2   3264   2.063   1.614   2.537
 1089SOL  OW    3265   1.987   1.671   2.898
 1089SOL  HW1   3266   1.976   1.576   2.866
 1089SOL  HW2   3267   2.060   1.674   2.967
 1090SOL  OW    3268   2.021   1.728   3.202
 1090SOL  HW1   3269   1.968   1.780   3.269
 1090SOL  HW2   3270   2.061   1.791   3.135
 1091SOL  OW    3271   2.037   1.700   3.550
 1091SOL  HW1   3272   1.964   1.695   3.482
 1091SOL  HW2   3273   2.109   1.760   3.516
 1092SOL  OW    3274   2.017   1.709   3.872
 1092SOL  HW1   3275   2.113   1.684   3.863
 1092SOL  HW2   3276   1.961   1.626   3.863
 1093SOL  OW    3277   1.999   2.003   0.140
 1093SOL  HW1   3278   1.997   1.928   0.074
 1093SOL  HW2   3279   1.916   2.058   0.129
 1094SOL  OW    3280   1.968   2.013   0.424
 1094SOL  HW1   3281   1.949   1.916   0.409
 1094SOL  HW2   3282   2.012   2.025   0.513
 1095SOL  OW    3283   1.982   1.968   0.744
 1095SOL  HW1   3284   2.066   1.916   0.761
 1095SOL  HW2   3285   1.991   2.019   0.659
 1096SOL  OW    3286   2.011   2.010   1.071
 1096SOL  HW1   3287   2.040   1.984   1.163
 1096SOL  HW2   3288   1.912   1.999   1.062
 1097SOL  OW    3289   1.967   1.995   1.373
 1097SOL  HW1   3290   1.995   2.089   1.391
 1097SOL  HW2   3291   2.018   1.960   1.294
 1098SOL  OW    3292   2.018   2.006   1.692
 1098SOL  HW1   3293   1.947   2.045   1.751
 1098SOL  HW2   3294   2.001   2.035   1.597
 1099SOL  OW    3295   1.999   2.037   2.021
 1099SOL  HW1   3296   1.940   1.968   1.979
 1099SOL  HW2   3297   1.983   2.040   2.119
 1100SOL  OW    3298   2.000   1.998   2.270
 1100SOL  HW1   3299   1.944   1.920   2.297
 1100SOL  HW2   3300   2.071   2.015   2.338
 1101SOL  OW    3301   2.035   1.986   2.596
 1101SOL  HW1   3302   1.971   1.948   2.529
 1101SOL  HW2   3303   2.099   2.047   2.549
 1102SOL  OW    3304   2.040   2.017   2.887
 1102SOL  HW1   3305   2.060   2.114   2.873
 1102SOL  HW2   3306   1.996   2.005   2.976
 1103SOL  OW    3307   1.965   1.962   3.239
 1103SOL  HW1   3308   1.920   1.874   3.225
 1103SOL  HW2   3309   1.908   2.020   3.297
 1104SOL  OW    3310   1.966   2.035   3.573
 1104SOL  HW1   3311   1.962   2.016   3.475
 1104SOL  HW2   3312   2.061   2.039   3.603
 1105SOL  OW    3313   2.004   2.009   3.830
 1105SOL  HW1   3314   2.024   2.082   3.764
 1105SOL  HW2   3315   1.982   2.050   3.918
 1106SOL  OW    3316   1.965   2.327   0.122
 1106SOL  HW1   3317   1.997   2.341   0.216
 1106SOL  HW2   3318   1.906   2.403   0.095
 1107SOL  OW    3319   1.967   2.293   0.423
 1107SOL  HW1   3320   1.942   2.342   0.339
 1107SOL  HW2   3321   1.937   2.198   0.415
 1108SOL  OW    3322   1.995   2.324   0.793
 1108SOL  HW1   3323   1.911   2.282   0.828
 1108SOL  HW2   3324   2.015   2.289   0.702
 1109SOL  OW    3325   2.008   2.335   1.069
 1109SOL  HW1   3326   2.081   2.288   1.119
 1109SOL  HW2   3327   2.043   2.422   1.035
 1110SOL  OW    3328   2.028   2.308   1.362
 1110SOL  HW1   3329   2.030   2.342   1.456
 1110SOL  HW2   3330   2.071   2.218   1.359
 1111SOL  OW    3331   2.036   2.290   1.654
 1111SOL  HW1   3332   1.947   2.324   1.686
 1111SOL  HW2   3333   2.100   2.366   1.645
 1112SOL  OW    3334   1.979   2.297   1.988
 1112SOL  HW1   3335   1.993   2.203   2.019
 1112SOL  HW2   3336   1.987   2.359   2.066
 1113SOL  OW    3337   2.002   2.338   2.291
 1113SOL  HW1   3338   1.933   2.273   2.322
 1113SOL  HW2   3339   2.091   2.312   2.329
 1114SOL  OW    3340   2.002   2.295   2.641
 1114SOL  HW1   3341   1.953   2.210   2.662
 1114SOL  HW2   3342   2.099   2.284   2.662
 1115SOL  OW    3343   1.973   2.276   2.923
 1115SOL  HW1   3344   1.946   2.262   3.019
 1115SOL  HW2   3345   2.072   2.269   2.915
 1116SOL  OW    3346   2.014   2.331   3.238
 1116SOL  HW1   3347   2.026   2.343   3.139
 1116SOL  HW2   3348   2.102   2.342   3.284
 1117SOL  OW    3349   2.022   2.299   3.501
 1117SOL  HW1   3350   2.049   2.280   3.596
 1117SOL  HW2   3351   1.929   2.336   3.500
 1118SOL  OW    3352   1.969   2.271   3.832
 1118SOL  HW1   3353   1.918   2.289   3.916
 1118SOL  HW2   3354   1.909   2.227   3.766
 1119SOL  OW    3355   2.000   2.604   0.159
 1119SOL  HW1   3356   2.002   2.612   0.258
 1119SOL  HW2   3357   2.016   2.509   0.133
 1120SOL  OW    3358   1.998   2.630   0.475
 1120SOL  HW1   3359   1.901   2.608   0.483
 1120SOL  HW2   3360   2.011   2.729   0.478
 1121SOL  OW    3361   1.985   2.603   0.776
 1121SOL  HW1   3362   1.903   2.565   0.818
 1121SOL  HW2   3363   2.065   2.551   0.807
 1122SOL  OW    3364   2.008   2.601   1.063
 1122SOL  HW1   3365   1.960   2.626   0.979
 1122SOL  HW2   3366   1.951   2.624   1.142
 1123SOL  OW    3367   2.016   2.627   1.355
 1123SOL  HW1   3368   2.036   2.553   1.419
 1123SOL  HW2   3369   2.081   2.625   1.279
 1124SOL  OW    3370   1.995   2.647   1.655
 1124SOL  HW1   3371   1.962   2.721   1.713
 1124SOL  HW2   3372   2.057   2.684   1.586
 1125SOL  OW    3373   2.028   2.588   2.001
 1125SOL  HW1   3374   2.106   2.557   1.946
 1125SOL  HW2   3375   1.946   2.591   1.943
 1126SOL  OW    3376   1.994   2.576   2.341
 1126SOL  HW1   3377   1.997   2.628   2.426
 1126SOL  HW2   3378   2.071   2.603   2.283
 1127SOL  OW    3379   1.996   2.652   2.598
 1127SOL  HW1   3380   1.924   2.668   2.665
 1127SOL  HW2   3381   2.048   2.736   2.583
 1128SOL  OW    3382   2.029   2.649   2.928
 1128SOL  HW1   3383   1.975   2.621   2.849
 1128SOL  HW2   3384   2.073   2.569   2.969
 1129SOL  OW    3385   1.976   2.630   3.235
 1129SOL  HW1   3386   2.062   2.596   3.196
 1129SOL  HW2   3387   1.958   2.584   3.321
 1130SOL  OW    3388   2.036   2.611   3.520
 1130SOL  HW1   3389   2.083   2.523   3.530
 1130SOL  HW2   3390   2.035   2.637   3.424
 1131SOL  OW    3391   1.971   2.631   3.884
 1131SOL  HW1   3392   1.909   2.567   3.929
 1131SOL  HW2   3393   2.035   2.669   3.951
 1132SOL  OW    3394   1.962   2.942   0.188
 1132SOL  HW1   3395   1.876   2.986   0.213
 1132SOL  HW2   3396   2.020   2.934   0.269
 1133SOL  OW    3397   1.966   2.892   0.477
 1133SOL  HW1   3398   1.879   2.900   0.525
 1133SOL  HW2   3399   1.953   2.841   0.392
 1134SOL  OW    3400   2.012   2.889   0.796
 1134SOL  HW1   3401   2.097   2.854   0.835
 1134SOL  HW2   3402   2.033   2.952   0.721
 1135SOL  OW    3403   2.002   2.956   1.107
 1135SOL  HW1   3404   2.001   2.856   1.116
 1135SOL  HW2   3405   2.088   2.985   1.065
 1136SOL  OW    3406   2.025   2.924   1.365
 1136SOL  HW1   3407   2.122   2.901   1.369
 1136SOL  HW2   3408   2.008   2.979   1.283
 1137SOL  OW    3409   2.000   2.891   1.705
 1137SOL  HW1   3410   2.030   2.975   1.659
 1137SOL  HW2   3411   1.983   2.910   1.802
 1138SOL  OW    3412   1.971   2.924   1.964
 1138SOL  HW1   3413   2.052   2.871   1.940
 1138SOL  HW2   3414   1.931   2.964   1.882
 1139SOL  OW    3415   1.984   2.902   2.317
 1139SOL  HW1   3416   2.074   2.939   2.295
 1139SOL  HW2   3417   1.988   2.802   2.316
 1140SOL  OW    3418   2.023   2.888   2.643
 1140SOL  HW1   3419   2.040   2.866   2.547
 1140SOL  HW2   3420   2.104   2.864   2.698
 1141SOL  OW    3421   2.029   2.910   2.936
 1141SOL  HW1   3422   1.981   2.995   2.912
 1141SOL  HW2   3423   2.074   2.873   2.855
 1142SOL  OW    3424   1.992   2.895   3.233
 1142SOL  HW1   3425   1.948   2.929   3.150
 1142SOL  HW2   3426   2.009   2.797   3.225
 1143SOL  OW    3427   1.967   2.953   3.572
 1143SOL  HW1   3428   1.951   2.962   3.474
 1143SOL  HW2   3429   1.885   2.918   3.617
 1144SOL  OW    3430   2.026   2.928   3.851
 1144SOL  HW1   3431   2.085   2.860   3.894
 1144SOL  HW2   3432   2.058   2.946   3.758
 1145SOL  OW    3433   2.039   3.211   0.120
 1145SOL  HW1   3434   2.093   3.128   0.136
 1145SOL  HW2   3435   1.982   3.198   0.038
 1146SOL  OW    3436   2.005   3.217   0.447
 1146SOL  HW1   3437   2.056   3.186   0.367
 1146SOL  HW2   3438   1.916   3.172   0.450
 1147SOL  OW    3439   1.961   3.238   0.750
 1147SOL  HW1   3440   1.904   3.279   0.679
 1147SOL  HW2   3441   1.925   3.265   0.840
 1148SOL  OW    3442   1.975   3.194   1.066
 1148SOL  HW1   3443   1.927   3.119   1.021
 1148SOL  HW2   3444   1.951   3.280   1.021
 1149SOL  OW    3445   2.030   3.218   1.399
 1149SOL  HW1   3446   1.947   3.164   1.410
 1149SOL  HW2   3447   2.089   3.206   1.479
 1150SOL  OW    3448   2.021   3.217   1.718
 1150SOL  HW1   3449   1.932   3.262   1.730
 1150SOL  HW2   3450   2.093   3.286   1.715
 1151SOL  OW    3451   2.015   3.236   1.960
 1151SOL  HW1   3452   2.060   3.308   1.908
 1151SOL  HW2   3453   1.971   3.275   2.041
 1152SOL  OW    3454   1.963   3.270   2.330
 1152SOL  HW1   3455   2.036   3.250   2.265
 1152SOL  HW2   3456   1.990   3.347   2.389
 1153SOL  OW    3457   2.035   3.263   2.577
 1153SOL  HW1   3458   2.096   3.338   2.600
 1153SOL  HW2   3459   1.993   3.227   2.660
 1154SOL  OW    3460   2.023   3.227   2.946
 1154SOL  HW1   3461   1.993   3.282   2.868
 1154SOL  HW2   3462   2.054   3.137   2.914
 1155SOL  OW    3463   1.961   3.214   3.251
 1155SOL  HW1   3464   1.925   3.228   3.343
 1155SOL  HW2   3465   2.041   3.272   3.237
 1156SOL  OW    3466   2.023   3.240   3.523
 1156SOL  HW1   3467   2.020   3.202   3.430
 1156SOL  HW2   3468   2.037   3.167   3.589
 1157SOL  OW    3469   1.985   3.268   3.841
 1157SOL  HW1   3470   1.899   3.252   3.891
 1157SOL  HW2   3471   2.057   3.211   3.880
 1158SOL  OW    3472   1.996   3.543   0.147
 1158SOL  HW1   3473   1.969   3.611   0.079
 1158SOL  HW2   3474   1.968   3.452   0.115
 1159SOL  OW    3475   2.004   3.533   0.488
 1159SOL  HW1   3476   2.051   3.450   0.456
 1159SOL  HW2   3477   1.906   3.515   0.496
 1160SOL  OW    3478   2.033   3.573   0.774
 1160SOL  HW1   3479   2.043   3.489   0.721
 1160SOL  HW2   3480   2.092   3.644   0.737
 1161SOL  OW    3481   1.995   3.555   1.104
 1161SOL  HW1   3482   2.003   3.521   1.010
 1161SOL  HW2   3483   1.929   3.500   1.154
 1162SOL  OW    3484   2.005   3.554   1.405
 1162SOL  HW1   3485   2.024   3.456   1.408
 1162SOL  HW2   3486   2.074   3.604   1.458
 1163SOL  OW    3487   2.014   3.558   1.669
 1163SOL  HW1   3488   2.083   3.502   1.623
 1163SOL  HW2   3489   2.038   3.567   1.766
 1164SOL  OW    3490   2.000   3.546   1.960
 1164SOL  HW1   3491   1.937   3.621   1.979
 1164SOL  HW2   3492   2.053   3.566   1.878
 1165SOL  OW    3493   2.028   3.547   2.278
 1165SOL  HW1   3494   2.036   3.464   2.224
 1165SOL  HW2   3495   1.992   3.525   2.368
 1166SOL  OW    3496   2.025   3.556   2.636
 1166SOL  HW1   3497   2.014   3.515   2.726
 1166SOL  HW2   3498   1.955   3.625   2.622
 1167SOL  OW    3499   1.991   3.567   2.916
 1167SOL  HW1   3500   1.927   3.606   2.982
 1167SOL  HW2   3501   2.058   3.636   2.889
 1168SOL  OW    3502   2.006   3.499   3.242
 1168SOL  HW1   3503   2.096   3.501   3.200
 1168SOL  HW2   3504   2.005   3.430   3.316
 1169SOL  OW    3505   2.017   3.544   3.538
 1169SOL  HW1   3506   1.968   3.480   3.479
 1169SOL  HW2   3507   2.030   3.631   3.490
 1170SOL  OW    3508   2.025   3.553   3.828
 1170SOL  HW1   3509   2.109   3.588   3.787
 1170SOL  HW2   3510   2.016   3.455   3.808
 1171SOL  OW    3511   2.037   3.863   0.193
 1171SOL  HW1   3512   1.946   3.822   0.206
 1171SOL  HW2   3513   2.071   3.896   0.281
 1172SOL  OW    3514   2.038   3.880   0.482
 1172SOL  HW1   3515   1.992   3.959   0.522
 1172SOL  HW2   3516   1.999   3.861   0.392
 1173SOL  OW    3517   2.009   3.820   0.773
 1173SOL  HW1   3518   1.962   3.842   0.858
 1173SOL  HW2   3519   2.030   3.722   0.771
 1174SOL  OW    3520   2.021   3.848   1.106
 1174SOL  HW1   3521   2.106   3.878   1.149
 1174SOL  HW2   3522   2.012   3.891   1.017
 1175SOL  OW    3523   1.969   3.837   1.385
 1175SOL  HW1   3524   1.888   3.867   1.335
 1175SOL  HW2   3525   2.032   3.791   1.322
 1176SOL  OW    3526   1.995   3.815   1.665
 1176SOL  HW1   3527   1.902   3.790   1.694
 1176SOL  HW2   3528   2.046   3.732   1.645
 1177SOL  OW    3529   2.027   3.845   1.964
 1177SOL  HW1   3530   2.113   3.895   1.957
 1177SOL  HW2   3531   1.996   3.818   1.873
 1178SOL  OW    3532   1.961   3.844   2.281
 1178SOL  HW1   3533   2.046   3.790   2.284
 1178SOL  HW2   3534   1.918   3.833   2.191
 1179SOL  OW    3535   2.016   3.870   2.594
 1179SOL  HW1   3536   1.980   3.939   2.532
 1179SOL  HW2   3537   2.076   3.808   2.542
 1180SOL  OW    3538   2.007   3.819   2.907
 1180SOL  HW1   3539   2.080   3.830   2.839
 1180SOL  HW2   3540   2.014   3.728   2.948
 1181SOL  OW    3541   2.031   3.850   3.262
 1181SOL  HW1   3542   2.101   3.835   3.192
 1181SOL  HW2   3543   2.032   3.774   3.327
 1182SOL  OW    3544   1.978   3.833   3.536
 1182SOL  HW1   3545   1.985   3.835   3.436
 1182SOL  HW2   3546   1.938   3.918   3.569
 1183SOL  OW    3547   1.998   3.886   3.815
 1183SOL  HW1   3548   1.909   3.841   3.822
 1183SOL  HW2   3549   1.987   3.978   3.777
 1184SOL  OW    3550   2.336   0.183   0.158
 1184SOL  HW1   3551   2.300   0.185   0.252
 1184SOL  HW2   3552   2.376   0.093   0.140
 1185SOL  OW    3553   2.295   0.155   0.445
 1185SOL  HW1   3554   2.387   0.172   0.408
 1185SOL  HW2   3555   2.292   0.064   0.486
 1186SOL  OW    3556   2.332   0.154   0.803
 1186SOL  HW1   3557   2.264   0.087   0.771
 1186SOL  HW2   3558   2.402   0.167   0.733
 1187SOL  OW    3559   2.318   0.155   1.094
 1187SOL  HW1   3560   2.239   0.121   1.042
 1187SOL  HW2   3561   2.293   0.240   1.140
 1188SOL  OW    3562   2.308   0.186   1.359
 1188SOL  HW1   3563   2.282   0.100   1.403
 1188SOL  HW2   3564   2.364   0.167   1.279
 1189SOL  OW    3565   2.346   0.179   1.721
 1189SOL  HW1   3566   2.382   0.226   1.641
 1189SOL  HW2   3567   2.407   0.193   1.799
 1190SOL  OW    3568   2.306   0.181   1.985
 1190SOL  HW1   3569   2.303   0.234   2.069
 1190SOL  HW2   3570   2.402   0.170   1.956
 1191SOL  OW    3571   2.329   0.125   2.292
 1191SOL  HW1   3572   2.383   0.202   2.259
 1191SOL  HW2   3573   2.232   0.152   2.297
 1192SOL  OW    3574   2.303   0.140   2.606
 1192SOL  HW1   3575   2.397   0.131   2.640
 1192SOL  HW2   3576   2.240   0.110   2.678
 1193SOL  OW    3577   2.333   0.134   2.943
 1193SOL  HW1   3578   2.370   0.098   3.028
 1193SOL  HW2   3579   2.233   0.138   2.948
 1194SOL  OW    3580   2.274   0.175   3.254
 1194SOL  HW1   3581   2.211   0.208   3.184
 1194SOL  HW2   3582   2.334   0.250   3.283
 1195SOL  OW    3583   2.300   0.172   3.572
 1195SOL  HW1   3584   2.293   0.140   3.477
 1195SOL  HW2   3585   2.395   0.168   3.602
 1196SOL  OW    3586   2.332   0.145   3.845
 1196SOL  HW1   3587   2.331   0.129   3.944
 1196SOL  HW2   3588   2.387   0.075   3.800
 1197SOL  OW    3589   2.330   0.445   0.178
 1197SOL  HW1   3590   2.298   0.539   0.187
 1197SOL  HW2   3591   2.297   0.391   0.256
 1198SOL  OW    3592   2.294   0.486   0.428
 1198SOL  HW1   3593   2.356   0.552   0.386
 1198SOL  HW2   3594   2.280   0.409   0.367
 1199SOL  OW    3595   2.271   0.501   0.799
 1199SOL  HW1   3596   2.256   0.437   0.874
 1199SOL  HW2   3597   2.347   0.469   0.742
 1200SOL  OW    3598   2.338   0.498   1.072
 1200SOL  HW1   3599   2.375   0.574   1.018
 1200SOL  HW2   3600   2.397   0.418   1.061
 1201SOL  OW    3601   2.291   0.432   1.385
 1201SOL  HW1   3602   2.272   0.334   1.376
 1201SOL  HW2   3603   2.382   0.452   1.349
 1202SOL  OW    3604   2.285   0.496   1.653
 1202SOL  HW1   3605   2.352   0.506   1.727
 1202SOL  HW2   3606   2.219   0.425   1.676
 1203SOL  OW    3607   2.279   0.441   1.976
 1203SOL  HW1   3608   2.198   0.445   1.917
 1203SOL  HW2   3609   2.258   0.483   2.064
 1204SOL  OW    3610   2.286   0.474   2.294
 1204SOL  HW1   3611   2.305   0.549   2.358
 1204SOL  HW2   3612   2.187   0.456   2.292
 1205SOL  OW    3613   2.317   0.493   2.624
 1205SOL  HW1   3614   2.396   0.554   2.616
 1205SOL  HW2   3615   2.246   0.537   2.678
 1206SOL  OW    3616   2.323   0.451   2.896
 1206SOL  HW1   3617   2.321   0.546   2.928
 1206SOL  HW2   3618   2.319   0.449   2.796
 1207SOL  OW    3619   2.293   0.499   3.241
 1207SOL  HW1   3620   2.377   0.476   3.192
 1207SOL  HW2   3621   2.226   0.536   3.176
 1208SOL  OW    3622   2.290   0.458   3.565
 1208SOL  HW1   3623   2.268   0.390   3.495
 1208SOL  HW2   3624   2.314   0.411   3.650
 1209SOL  OW    3625   2.321   0.466   3.877
 1209SOL  HW1   3626   2.225   0.485   3.899
 1209SOL  HW2   3627   2.376   0.547   3.899
 1210SOL  OW    3628   2.321   0.781   0.129
 1210SOL  HW1   3629   2.377   0.713   0.081
 1210SOL  HW2   3630   2.305   0.750   0.223
 1211SOL  OW    3631   2.276   0.806   0.469
 1211SOL  HW1   3632   2.202   0.844   0.414
 1211SOL  HW2   3633   2.244   0.791   0.563
 1212SOL  OW    3634   2.301   0.776   0.734
 1212SOL  HW1   3635   2.213   0.788   0.687
 1212SOL  HW2   3636   2.286   0.771   0.833
 1213SOL  OW    3637   2.333   0.747   1.101
 1213SOL  HW1   3638   2.324   0.649   1.081
 1213SOL  HW2   3639   2.368   0.794   1.020
 1214SOL  OW    3640   2.310   0.751   1.347
 1214SOL  HW1   3641   2.349   0.770   1.437
 1214SOL  HW2   3642   2.255   0.829   1.317
 1215SOL  OW    3643   2.333   0.743   1.656
 1215SOL  HW1   3644   2.335   0.744   1.756
 1215SOL  HW2   3645   2.426   0.758   1.621
 1216SOL  OW    3646   2.328   0.757   1.991
 1216SOL  HW1   3647   2.229   0.768   2.002
 1216SOL  HW2   3648   2.347   0.709   1.906
 1217SOL  OW    3649   2.287   0.798   2.291
 1217SOL  HW1   3650   2.252   0.889   2.270
 1217SOL  HW2   3651   2.384   0.793   2.267
 1218SOL  OW    3652   2.285   0.754   2.592
 1218SOL  HW1   3653   2.360   0.715   2.644
 1218SOL  HW2   3654   2.317   0.783   2.502
 1219SOL  OW    3655   2.293   0.736   2.896
 1219SOL  HW1   3656   2.209   0.781   2.866
 1219SOL  HW2   3657   2.329   0.680   2.821
 1220SOL  OW    3658   2.301   0.800   3.195
 1220SOL  HW1   3659   2.344   0.710   3.205
 1220SOL  HW2   3660   2.272   0.833   3.285
 1221SOL  OW    3661   2.285   0.802   3.570
 1221SOL  HW1   3662   2.255   0.834   3.660
 1221SOL  HW2   3663   2.307   0.704   3.574
 1222SOL  OW    3664   2.322   0.748   3.840
 1222SOL  HW1   3665   2.269   0.702   3.769
 1222SOL  HW2   3666   2.276   0.833   3.866
 1223SOL  OW    3667   2.285   1.047   0.144
 1223SOL  HW1   3668   2.249   1.123   0.089
 1223SOL  HW2   3669   2.379   1.066   0.171
 1224SOL  OW    3670   2.314   1.066   0.470
 1224SOL  HW1   3671   2.361   1.007   0.536
 1224SOL  HW2   3672   2.231   1.103   0.512
 1225SOL  OW    3673   2.291   1.065   0.792
 1225SOL  HW1   3674   2.356   0.989   0.804
 1225SOL  HW2   3675   2.332   1.136   0.735
 1226SOL  OW    3676   2.338   1.063   1.083
 1226SOL  HW1   3677   2.321   1.085   0.987
 1226SOL  HW2   3678   2.373   1.143   1.130
 1227SOL  OW    3679   2.290   1.041   1.404
 1227SOL  HW1   3680   2.376   1.076   1.366
 1227SOL  HW2   3681   2.309   0.989   1.487
 1228SOL  OW    3682   2.281   1.071   1.691
 1228SOL  HW1   3683   2.210   1.114   1.747
 1228SOL  HW2   3684   2.286   1.116   1.602
 1229SOL  OW    3685   2.282   1.044   1.988
 1229SOL  HW1   3686   2.261   0.956   2.030
 1229SOL  HW2   3687   2.379   1.066   2.002
 1230SOL  OW    3688   2.344   1.086   2.298
 1230SOL  HW1   3689   2.331   0.994   2.336
 1230SOL  HW2   3690   2.365   1.150   2.372
 1231SOL  OW    3691   2.271   1.085   2.583
 1231SOL  HW1   3692   2.269   0.989   2.553
 1231SOL  HW2   3693   2.177   1.117   2.598
 1232SOL  OW    3694   2.311   1.097   2.917
 1232SOL  HW1   3695   2.342   1.153   2.840
 1232SOL  HW2   3696   2.365   1.013   2.921
 1233SOL  OW    3697   2.292   1.041   3.193
 1233SOL  HW1   3698   2.300   0.960   3.251
 1233SOL  HW2   3699   2.211   1.032   3.135
 1234SOL  OW    3700   2.302   1.108   3.518
 1234SOL  HW1   3701   2.365   1.180   3.489
 1234SOL  HW2   3702   2.332   1.069   3.605
 1235SOL  OW    3703   2.314   1.092   3.811
 1235SOL  HW1   3704   2.309   1.038   3.727
 1235SOL  HW2   3705   2.363   1.177   3.794
 1236SOL  OW    3706   2.280   1.371   0.167
 1236SOL  HW1   3707   2.234   1.445   0.118
 1236SOL  HW2   3708   2.212   1.305   0.199
 1237SOL  OW    3709   2.303   1.403   0.491
 1237SOL  HW1   3710   2.227   1.378   0.430
 1237SOL  HW2   3711   2.370   1.330   0.493
 1238SOL  OW    3712   2.328   1.424   0.790
 1238SOL  HW1   3713   2.245   1.437   0.736
 1238SOL  HW2   3714   2.338   1.499   0.855
 1239SOL  OW    3715   2.336   1.411   1.095
 1239SOL  HW1   3716   2.255   1.420   1.153
 1239SOL  HW2   3717   2.346   1.493   1.039
 1240SOL  OW    3718   2.332   1.419   1.383
 1240SOL  HW1   3719   2.262   1.357   1.349
 1240SOL  HW2   3720   2.327   1.505   1.331
 1241SOL  OW    3721   2.319   1.386   1.720
 1241SOL  HW1   3722   2.241   1.449   1.728
 1241SOL  HW2   3723   2.404   1.437   1.729
 1242SOL  OW    3724   2.302   1.410   2.024
 1242SOL  HW1   3725   2.318   1.454   2.112
 1242SOL  HW2   3726   2.206   1.386   2.016
 1243SOL  OW    3727   2.345   1.365   2.324
 1243SOL  HW1   3728   2.417   1.348   2.392
 1243SOL  HW2   3729   2.271   1.417   2.366
 1244SOL  OW    3730   2.328   1.420   2.648
 1244SOL  HW1   3731   2.283   1.388   2.731
 1244SOL  HW2   3732   2.266   1.410   2.570
 1245SOL  OW    3733   2.314   1.391   2.896
 1245SOL  HW1   3734   2.219   1.394   2.865
 1245SOL  HW2   3735   2.362   1.471   2.863
 1246SOL  OW    3736   2.346   1.365   3.249
 1246SOL  HW1   3737   2.422   1.302   3.260
 1246SOL  HW2   3738   2.360   1.420   3.167
 1247SOL  OW    3739   2.331   1.380   3.515
 1247SOL  HW1   3740   2.340   1.319   3.437
 1247SOL  HW2   3741   2.250   1.355   3.568
 1248SOL  OW    3742   2.283   1.413   3.847
 1248SOL  HW1   3743   2.225   1.482   3.803
 1248SOL  HW2   3744   2.334   1.363   3.777
 1249SOL  OW    3745   2.275   1.710   0.134
 1249SOL  HW1   3746   2.315   1.621   0.112
 1249SOL  HW2   3747   2.187   1.696   0.180
 1250SOL  OW    3748   2.338   1.677   0.438
 1250SOL  HW1   3749   2.415   1.720   0.390
 1250SOL  HW2   3750   2.358   1.673   0.535
 1251SOL  OW    3751   2.274   1.693   0.765
 1251SOL  HW1   3752   2.353   1.689   0.703
 1251SOL  HW2   3753   2.192   1.667   0.716
 1252SOL  OW    3754   2.328   1.689   1.064
 1252SOL  HW1   3755   2.425   1.685   1.087
 1252SOL  HW2   3756   2.284   1.760   1.120
 1253SOL  OW    3757   2.289   1.675   1.419
 1253SOL  HW1   3758   2.239   1.692   1.334
 1253SOL  HW2   3759   2.294   1.759   1.472
 1254SOL  OW    3760   2.281   1.731   1.678
 1254SOL  HW1   3761   2.345   1.661   1.647
 1254SOL  HW2   3762   2.332   1.812   1.708
 1255SOL  OW    3763   2.275   1.672   1.965
 1255SOL  HW1   3764   2.223   1.709   1.888
 1255SOL  HW2   3765   2.211   1.641   2.035
 1256SOL  OW    3766   2.331   1.693   2.295
 1256SOL  HW1   3767   2.375   1.767   2.244
 1256SOL  HW2   3768   2.297   1.728   2.382
 1257SOL  OW    3769   2.321   1.703   2.651
 1257SOL  HW1   3770   2.285   1.794   2.672
 1257SOL  HW2   3771   2.271   1.634   2.704
 1258SOL  OW    3772   2.345   1.707   2.949
 1258SOL  HW1   3773   2.407   1.760   3.005
 1258SOL  HW2   3774   2.383   1.615   2.934
 1259SOL  OW    3775   2.331   1.692   3.247
 1259SOL  HW1   3776   2.344   1.613   3.307
 1259SOL  HW2   3777   2.410   1.752   3.255
 1260SOL  OW    3778   2.274   1.713   3.575
 1260SOL  HW1   3779   2.266   1.647   3.650
 1260SOL  HW2   3780   2.283   1.805   3.614
 1261SOL  OW    3781   2.274   1.719   3.881
 1261SOL  HW1   3782   2.290   1.621   3.887
 1261SOL  HW2   3783   2.268   1.746   3.785
 1262SOL  OW    3784   2.286   2.002   0.188
 1262SOL  HW1   3785   2.232   2.086   0.193
 1262SOL  HW2   3786   2.245   1.933   0.247
 1263SOL  OW    3787   2.345   1.970   0.449
 1263SOL  HW1   3788   2.399   2.053   0.460
 1263SOL  HW2   3789   2.405   1.891   0.444
 1264SOL  OW    3790   2.324   1.978   0.755
 1264SOL  HW1   3791   2.241   1.926   0.779
 1264SOL  HW2   3792   2.304   2.076   0.758
 1265SOL  OW    3793   2.270   1.972   1.082
 1265SOL  HW1   3794   2.249   1.995   1.177
 1265SOL  HW2   3795   2.200   1.909   1.048
 1266SOL  OW    3796   2.320   2.012   1.407
 1266SOL  HW1   3797   2.254   2.002   1.481
 1266SOL  HW2   3798   2.301   2.096   1.356
 1267SOL  OW    3799   2.301   1.982   1.654
 1267SOL  HW1   3800   2.389   2.029   1.644
 1267SOL  HW2   3801   2.314   1.897   1.706
 1268SOL  OW    3802   2.284   1.985   1.974
 1268SOL  HW1   3803   2.298   2.066   1.918
 1268SOL  HW2   3804   2.218   2.005   2.047
 1269SOL  OW    3805   2.269   1.973   2.321
 1269SOL  HW1   3806   2.355   2.014   2.292
 1269SOL  HW2   3807   2.202   1.980   2.247
 1270SOL  OW    3808   2.318   2.035   2.639
 1270SOL  HW1   3809   2.338   1.937   2.646
 1270SOL  HW2   3810   2.245   2.059   2.703
 1271SOL  OW    3811   2.313   1.971   2.928
 1271SOL  HW1   3812   2.320   1.880   2.887
 1271SOL  HW2   3813   2.400   1.996   2.970
 1272SOL  OW    3814   2.273   1.994   3.222
 1272SOL  HW1   3815   2.275   2.011   3.123
 1272SOL  HW2   3816   2.360   1.955   3.252
 1273SOL  OW    3817   2.302   1.982   3.553
 1273SOL  HW1   3818   2.278   2.005   3.648
 1273SOL  HW2   3819   2.228   2.012   3.493
 1274SOL  OW    3820   2.335   2.021   3.856
 1274SOL  HW1   3821   2.276   2.093   3.819
 1274SOL  HW2   3822   2.393   1.984   3.783
 1275SOL  OW    3823   2.311   2.270   0.172
 1275SOL  HW1   3824   2.226   2.307   0.134
 1275SOL  HW2   3825   2.383   2.339   0.166
 1276SOL  OW    3826   2.311   2.289   0.448
 1276SOL  HW1   3827   2.239   2.343   0.405
 1276SOL  HW2   3828   2.395   2.299   0.395
 1277SOL  OW    3829   2.343   2.318   0.767
 1277SOL  HW1   3830   2.246   2.301   0.786
 1277SOL  HW2   3831   2.353   2.347   0.672
 1278SOL  OW    3832   2.317   2.301   1.075
 1278SOL  HW1   3833   2.383   2.295   0.999
 1278SOL  HW2   3834   2.299   2.397   1.095
 1279SOL  OW    3835   2.291   2.303   1.399
 1279SOL  HW1   3836   2.271   2.279   1.304
 1279SOL  HW2   3837   2.317   2.399   1.405
 1280SOL  OW    3838   2.271   2.331   1.675
 1280SOL  HW1   3839   2.223   2.418   1.690
 1280SOL  HW2   3840   2.369   2.345   1.686
 1281SOL  OW    3841   2.322   2.319   2.012
 1281SOL  HW1   3842   2.341   2.415   1.990
 1281SOL  HW2   3843   2.229   2.296   1.985
 1282SOL  OW    3844   2.316   2.344   2.308
 1282SOL  HW1   3845   2.243   2.332   2.376
 1282SOL  HW2   3846   2.403   2.361   2.356
 1283SOL  OW    3847   2.326   2.324   2.594
 1283SOL  HW1   3848   2.265   2.362   2.664
 1283SOL  HW2   3849   2.354   2.232   2.621
 1284SOL  OW    3850   2.290   2.302   2.905
 1284SOL  HW1   3851   2.315   2.397   2.886
 1284SOL  HW2   3852   2.372   2.244   2.897
 1285SOL  OW    3853   2.297   2.299   3.239
 1285SOL  HW1   3854   2.201   2.286   3.262
 1285SOL  HW2   3855   2.315   2.396   3.226
 1286SOL  OW    3856   2.285   2.332   3.533
 1286SOL  HW1   3857   2.288   2.238   3.499
 1286SOL  HW2   3858   2.230   2.389   3.472
 1287SOL  OW    3859   2.324   2.274   3.844
 1287SOL  HW1   3860   2.369   2.347   3.791
 1287SOL  HW2   3861   2.394   2.220   3.891
 1288SOL  OW    3862   2.270   2.629   0.141
 1288SOL  HW1   3863   2.177   2.664   0.153
 1288SOL  HW2   3864   2.274   2.572   0.060
 1289SOL  OW    3865   2.344   2.601   0.467
 1289SOL  HW1   3866   2.298   2.555   0.542
 1289SOL  HW2   3867   2.276   2.626   0.397
 1290SOL  OW    3868   2.288   2.625   0.767
 1290SOL  HW1   3869   2.260   2.721   0.768
 1290SOL  HW2   3870   2.384   2.618   0.794
 1291SOL  OW    3871   2.297   2.592   1.046
 1291SOL  HW1   3872   2.361   2.579   0.970
 1291SOL  HW2   3873   2.208   2.620   1.010
 1292SOL  OW    3874   2.277   2.655   1.378
 1292SOL  HW1   3875   2.278   2.594   1.457
 1292SOL  HW2   3876   2.356   2.717   1.382
 1293SOL  OW    3877   2.268   2.652   1.654
 1293SOL  HW1   3878   2.327   2.630   1.732
 1293SOL  HW2   3879   2.318   2.638   1.569
 1294SOL  OW    3880   2.301   2.633   2.033
 1294SOL  HW1   3881   2.371   2.635   1.961
 1294SOL  HW2   3882   2.345   2.620   2.122
 1295SOL  OW    3883   2.325   2.612   2.346
 1295SOL  HW1   3884   2.308   2.516   2.366
 1295SOL  HW2   3885   2.244   2.651   2.301
 1296SOL  OW    3886   2.271   2.654   2.643
 1296SOL  HW1   3887   2.251   2.724   2.712
 1296SOL  HW2   3888   2.302   2.698   2.559
 1297SOL  OW    3889   2.342   2.596   2.894
 1297SOL  HW1   3890   2.407   2.554   2.958
 1297SOL  HW2   3891   2.254   2.609   2.941
 1298SOL  OW    3892   2.321   2.617   3.233
 1298SOL  HW1   3893   2.289   2.613   3.327
 1298SOL  HW2   3894   2.247   2.589   3.172
 1299SOL  OW    3895   2.342   2.625   3.523
 1299SOL  HW1   3896   2.245   2.612   3.504
 1299SOL  HW2   3897   2.381   2.689   3.457
 1300SOL  OW    3898   2.300   2.586   3.822
 1300SOL  HW1   3899   2.297   2.553   3.916
 1300SOL  HW2   3900   2.298   2.508   3.759
 1301SOL  OW    3901   2.279   2.948   0.170
 1301SOL  HW1   3902   2.350   2.922   0.236
 1301SOL  HW2   3903   2.223   3.021   0.209
 1302SOL  OW    3904   2.310   2.913   0.475
 1302SOL  HW1   3905   2.280   2.949   0.563
 1302SOL  HW2   3906   2.295   2.814   0.472
 1303SOL  OW    3907   2.333   2.954   0.773
 1303SOL  HW1   3908   2.253   2.970   0.715
 1303SOL  HW2   3909   2.309   2.973   0.868
 1304SOL  OW    3910   2.333   2.924   1.075
 1304SOL  HW1   3911   2.375   3.013   1.055
 1304SOL  HW2   3912   2.330   2.869   0.991
 1305SOL  OW    3913   2.337   2.914   1.376
 1305SOL  HW1   3914   2.272   2.981   1.340
 1305SOL  HW2   3915   2.337   2.919   1.476
 1306SOL  OW    3916   2.292   2.925   1.696
 1306SOL  HW1   3917   2.202   2.918   1.653
 1306SOL  HW2   3918   2.350   2.987   1.643
 1307SOL  OW    3919   2.321   2.918   1.977
 1307SOL  HW1   3920   2.260   2.888   1.904
 1307SOL  HW2   3921   2.269   2.924   2.063
 1308SOL  OW    3922   2.337   2.911   2.342
 1308SOL  HW1   3923   2.416   2.946   2.292
 1308SOL  HW2   3924   2.355   2.816   2.370
 1309SOL  OW    3925   2.284   2.928   2.618
 1309SOL  HW1   3926   2.235   2.902   2.535
 1309SOL  HW2   3927   2.383   2.928   2.600
 1310SOL  OW    3928   2.334   2.894   2.956
 1310SOL  HW1   3929   2.241   2.911   2.989
 1310SOL  HW2   3930   2.399   2.919   3.027
 1311SOL  OW    3931   2.310   2.930   3.232
 1311SOL  HW1   3932   2.285   3.011   3.179
 1311SOL  HW2   3933   2.304   2.849   3.173
 1312SOL  OW    3934   2.271   2.923   3.520
 1312SOL  HW1   3935   2.300   2.831   3.493
 1312SOL  HW2   3936   2.171   2.924   3.531
 1313SOL  OW    3937   2.295   2.935   3.846
 1313SOL  HW1   3938   2.316   3.020   3.798
 1313SOL  HW2   3939   2.216   2.891   3.804
 1314SOL  OW    3940   2.275   3.197   0.129
 1314SOL  HW1   3941   2.208   3.269   0.112
 1314SOL  HW2   3942   2.288   3.143   0.045
 1315SOL  OW    3943   2.283   3.239   0.436
 1315SOL  HW1   3944   2.207   3.304   0.445
 1315SOL  HW2   3945   2.277   3.192   0.348
 1316SOL  OW    3946   2.338   3.208   0.737
 1316SOL  HW1   3947   2.318   3.303   0.760
 1316SOL  HW2   3948   2.268   3.148   0.776
 1317SOL  OW    3949   2.338   3.214   1.071
 1317SOL  HW1   3950   2.255   3.218   1.127
 1317SOL  HW2   3951   2.404   3.152   1.113
 1318SOL  OW    3952   2.344   3.266   1.402
 1318SOL  HW1   3953   2.350   3.267   1.502
 1318SOL  HW2   3954   2.421   3.214   1.365
 1319SOL  OW    3955   2.273   3.238   1.731
 1319SOL  HW1   3956   2.198   3.265   1.791
 1319SOL  HW2   3957   2.254   3.148   1.692
 1320SOL  OW    3958   2.343   3.199   1.992
 1320SOL  HW1   3959   2.254   3.230   1.958
 1320SOL  HW2   3960   2.392   3.276   2.033
 1321SOL  OW    3961   2.293   3.201   2.323
 1321SOL  HW1   3962   2.326   3.276   2.381
 1321SOL  HW2   3963   2.318   3.113   2.364
 1322SOL  OW    3964   2.290   3.218   2.583
 1322SOL  HW1   3965   2.293   3.283   2.658
 1322SOL  HW2   3966   2.224   3.146   2.604
 1323SOL  OW    3967   2.308   3.203   2.918
 1323SOL  HW1   3968   2.387   3.145   2.899
 1323SOL  HW2   3969   2.269   3.180   3.007
 1324SOL  OW    3970   2.279   3.267   3.202
 1324SOL  HW1   3971   2.316   3.324   3.129
 1324SOL  HW2   3972   2.342   3.270   3.280
 1325SOL  OW    3973   2.309   3.207   3.505
 1325SOL  HW1   3974   2.327   3.121   3.553
 1325SOL  HW2   3975   2.396   3.253   3.486
 1326SOL  OW    3976   2.284   3.195   3.817
 1326SOL  HW1   3977   2.263   3.165   3.910
 1326SOL  HW2   3978   2.382   3.186   3.801
 1327SOL  OW    3979   2.307   3.551   0.121
 1327SOL  HW1   3980   2.209   3.530   0.121
 1327SOL  HW2   3981   2.359   3.467   0.136
 1328SOL  OW    3982   2.303   3.545   0.440
 1328SOL  HW1   3983   2.292   3.598   0.356
 1328SOL  HW2   3984   2.366   3.593   0.502
 1329SOL  OW    3985   2.297   3.504   0.747
 1329SOL  HW1   3986   2.305   3.581   0.811
 1329SOL  HW2   3987   2.203   3.470   0.746
 1330SOL  OW    3988   2.305   3.578   1.117
 1330SOL  HW1   3989   2.270   3.589   1.024
 1330SOL  HW2   3990   2.405   3.571   1.114
 1331SOL  OW    3991   2.346   3.532   1.351
 1331SOL  HW1   3992   2.444   3.541   1.368
 1331SOL  HW2   3993   2.306   3.623   1.337
 1332SOL  OW    3994   2.294   3.517   1.653
 1332SOL  HW1   3995   2.382   3.557   1.627
 1332SOL  HW2   3996   2.251   3.576   1.723
 1333SOL  OW    3997   2.275   3.535   1.987
 1333SOL  HW1   3998   2.201   3.534   1.920
 1333SOL  HW2   3999   2.336   3.457   1.971
 1334SOL  OW    4000   2.282   3.556   2.296
 1334SOL  HW1   4001   2.257   3.459   2.289
 1334SOL  HW2   4002   2.343   3.568   2.375
 1335SOL  OW    4003   2.336   3.518   2.618
 1335SOL  HW1   4004   2.420   3.513   2.672
 1335SOL  HW2   4005   2.291   3.606   2.635
 1336SOL  OW    4006   2.282   3.538   2.895
 1336SOL  HW1   4007   2.352   3.603   2.927
 1336SOL  HW2   4008   2.327   3.457   2.857
 1337SOL  OW    4009   2.281   3.547   3.212
 1337SOL  HW1   4010   2.232   3.473   3.166
 1337SOL  HW2   4011   2.268   3.540   3.311
 1338SOL  OW    4012   2.281   3.573   3.502
 1338SOL  HW1   4013   2.210   3.606   3.563
 1338SOL  HW2   4014   2.287   3.473   3.508
 1339SOL  OW    4015   2.313   3.542   3.826
 1339SOL  HW1   4016   2.400   3.558   3.780
 1339SOL  HW2   4017   2.302   3.444   3.843
 1340SOL  OW    4018   2.304   3.813   0.172
 1340SOL  HW1   4019   2.324   3.799   0.269
 1340SOL  HW2   4020   2.253   3.734   0.136
 1341SOL  OW    4021   2.285   3.822   0.447
 1341SOL  HW1   4022   2.293   3.873   0.532
 1341SOL  HW2   4023   2.349   3.744   0.449
 1342SOL  OW    4024   2.340   3.870   0.805
 1342SOL  HW1   4025   2.325   3.948   0.866
 1342SOL  HW2   4026   2.299   3.889   0.716
 1343SOL  OW    4027   2.320   3.859   1.075
 1343SOL  HW1   4028   2.227   3.889   1.097
 1343SOL  HW2   4029   2.372   3.849   1.160
 1344SOL  OW    4030   2.340   3.847   1.373
 1344SOL  HW1   4031   2.277   3.905   1.322
 1344SOL  HW2   4032   2.414   3.903   1.411
 1345SOL  OW    4033   2.319   3.850   1.662
 1345SOL  HW1   4034   2.321   3.916   1.587
 1345SOL  HW2   4035   2.262   3.885   1.736
 1346SOL  OW    4036   2.299   3.831   2.028
 1346SOL  HW1   4037   2.275   3.883   1.946
 1346SOL  HW2   4038   2.379   3.774   2.009
 1347SOL  OW    4039   2.298   3.872   2.303
 1347SOL  HW1   4040   2.258   3.961   2.322
 1347SOL  HW2   4041   2.285   3.849   2.207
 1348SOL  OW    4042   2.328   3.817   2.649
 1348SOL  HW1   4043   2.270   3.748   2.606
 1348SOL  HW2   4044   2.379   3.775   2.724
 1349SOL  OW    4045   2.306   3.827   2.902
 1349SOL  HW1   4046   2.393   3.794   2.939
 1349SOL  HW2   4047   2.237   3.824   2.974
 1350SOL  OW    4048   2.289   3.835   3.248
 1350SOL  HW1   4049   2.307   3.866   3.155
 1350SOL  HW2   4050   2.239   3.907   3.298
 1351SOL  OW    4051   2.344   3.860   3.542
 1351SOL  HW1   4052   2.337   3.763   3.566
 1351SOL  HW2   4053   2.268   3.909   3.585
 1352SOL  OW    4054   2.304   3.872   3.874
 1352SOL  HW1   4055   2.316   3.970   3.854
 1352SOL  HW2   4056   2.210   3.845   3.852
 1353SOL  OW    4057   2.599   0.190   0.145
 1353SOL  HW1   4058   2.521   0.145   0.190
 1353SOL  HW2   4059   2.583   0.194   0.047
 1354SOL  OW    4060   2.639   0.191   0.478
 1354SOL  HW1   4061   2.586   0.166   0.397
 1354SOL  HW2   4062   2.580   0.234   0.546
 1355SOL  OW    4063   2.588   0.161   0.739
 1355SOL  HW1   4064   2.646   0.103   0.796
 1355SOL  HW2   4065   2.616   0.151   0.643
 1356SOL  OW    4066   2.639   0.136   1.093
 1356SOL  HW1   4067   2.628   0.223   1.142
 1356SOL  HW2   4068   2.556   0.082   1.103
 1357SOL  OW    4069   2.648   0.128   1.376
 1357SOL  HW1   4070   2.670   0.107   1.281
 1357SOL  HW2   4071   2.637   0.227   1.386
 1358SOL  OW    4072   2.627   0.147   1.666
 1358SOL  HW1   4073   2.641   0.144   1.765
 1358SOL  HW2   4074   2.609   0.055   1.631
 1359SOL  OW    4075   2.578   0.146   2.012
 1359SOL  HW1   4076   2.479   0.133   2.002
 1359SOL  HW2   4077   2.603   0.236   1.974
 1360SOL  OW    4078   2.621   0.126   2.304
 1360SOL  HW1   4079   2.720   0.110   2.305
 1360SOL  HW2   4080   2.586   0.113   2.211
 1361SOL  OW    4081   2.605   0.136   2.634
 1361SOL  HW1   4082   2.588   0.127   2.536
 1361SOL  HW2   4083   2.521   0.115   2.684
 1362SOL  OW    4084   2.600   0.157   2.957
 1362SOL  HW1   4085   2.505   0.130   2.973
 1362SOL  HW2   4086   2.659   0.076   2.958
 1363SOL  OW    4087   2.619   0.163   3.197
 1363SOL  HW1   4088   2.556   0.237   3.171
 1363SOL  HW2   4089   2.613   0.090   3.129
 1364SOL  OW    4090   2.590   0.122   3.560
 1364SOL  HW1   4091   2.558   0.215   3.542
 1364SOL  HW2   4092   2.622   0.115   3.654
 1365SOL  OW    4093   2.642   0.129   3.824
 1365SOL  HW1   4094   2.548   0.160   3.832
 1365SOL  HW2   4095   2.650   0.036   3.861
 1366SOL  OW    4096   2.601   0.469   0.164
 1366SOL  HW1   4097   2.536   0.526   0.213
 1366SOL  HW2   4098   2.599   0.376   0.200
 1367SOL  OW    4099   2.630   0.494   0.445
 1367SOL  HW1   4100   2.545   0.459   0.485
 1367SOL  HW2   4101   2.708   0.453   0.492
 1368SOL  OW    4102   2.628   0.466   0.754
 1368SOL  HW1   4103   2.642   0.469   0.655
 1368SOL  HW2   4104   2.655   0.377   0.789
 1369SOL  OW    4105   2.648   0.429   1.094
 1369SOL  HW1   4106   2.634   0.346   1.041
 1369SOL  HW2   4107   2.736   0.424   1.140
 1370SOL  OW    4108   2.634   0.495   1.386
 1370SOL  HW1   4109   2.571   0.419   1.368
 1370SOL  HW2   4110   2.639   0.511   1.485
 1371SOL  OW    4111   2.601   0.488   1.714
 1371SOL  HW1   4112   2.628   0.457   1.623
 1371SOL  HW2   4113   2.618   0.586   1.723
 1372SOL  OW    4114   2.615   0.483   1.981
 1372SOL  HW1   4115   2.702   0.532   1.979
 1372SOL  HW2   4116   2.632   0.386   1.998
 1373SOL  OW    4117   2.623   0.491   2.293
 1373SOL  HW1   4118   2.633   0.575   2.240
 1373SOL  HW2   4119   2.578   0.512   2.380
 1374SOL  OW    4120   2.614   0.498   2.639
 1374SOL  HW1   4121   2.524   0.541   2.633
 1374SOL  HW2   4122   2.604   0.399   2.630
 1375SOL  OW    4123   2.646   0.452   2.963
 1375SOL  HW1   4124   2.670   0.415   3.052
 1375SOL  HW2   4125   2.723   0.440   2.900
 1376SOL  OW    4126   2.588   0.463   3.229
 1376SOL  HW1   4127   2.504   0.503   3.268
 1376SOL  HW2   4128   2.666   0.521   3.252
 1377SOL  OW    4129   2.639   0.494   3.557
 1377SOL  HW1   4130   2.615   0.589   3.580
 1377SOL  HW2   4131   2.629   0.480   3.458
 1378SOL  OW    4132   2.626   0.456   3.847
 1378SOL  HW1   4133   2.713   0.435   3.804
 1378SOL  HW2   4134   2.556   0.391   3.814
 1379SOL  OW    4135   2.616   0.731   0.154
 1379SOL  HW1   4136   2.553   0.656   0.132
 1379SOL  HW2   4137   2.678   0.702   0.227
 1380SOL  OW    4138   2.644   0.786   0.485
 1380SOL  HW1   4139   2.588   0.859   0.525
 1380SOL  HW2   4140   2.631   0.701   0.537
 1381SOL  OW    4141   2.607   0.772   0.732
 1381SOL  HW1   4142   2.698   0.735   0.749
 1381SOL  HW2   4143   2.538   0.706   0.763
 1382SOL  OW    4144   2.606   0.767   1.057
 1382SOL  HW1   4145   2.671   0.718   1.115
 1382SOL  HW2   4146   2.656   0.822   0.991
 1383SOL  OW    4147   2.578   0.784   1.379
 1383SOL  HW1   4148   2.640   0.768   1.456
 1383SOL  HW2   4149   2.581   0.881   1.354
 1384SOL  OW    4150   2.609   0.749   1.695
 1384SOL  HW1   4151   2.670   0.684   1.740
 1384SOL  HW2   4152   2.514   0.727   1.717
 1385SOL  OW    4153   2.610   0.767   2.006
 1385SOL  HW1   4154   2.528   0.819   2.031
 1385SOL  HW2   4155   2.605   0.675   2.045
 1386SOL  OW    4156   2.576   0.802   2.273
 1386SOL  HW1   4157   2.649   0.818   2.340
 1386SOL  HW2   4158   2.505   0.871   2.285
 1387SOL  OW    4159   2.611   0.746   2.617
 1387SOL  HW1   4160   2.678   0.694   2.671
 1387SOL  HW2   4161   2.635   0.740   2.520
 1388SOL  OW    4162   2.598   0.798   2.915
 1388SOL  HW1   4163   2.616   0.845   2.828
 1388SOL  HW2   4164   2.499   0.788   2.927
 1389SOL  OW    4165   2.626   0.749   3.192
 1389SOL  HW1   4166   2.714   0.768   3.237
 1389SOL  HW2   4167   2.557   0.813   3.226
 1390SOL  OW    4168   2.608   0.772   3.535
 1390SOL  HW1   4169   2.648   0.781   3.626
 1390SOL  HW2   4170   2.538   0.700   3.537
 1391SOL  OW    4171   2.652   0.786   3.886
 1391SOL  HW1   4172   2.633   0.755   3.793
 1391SOL  HW2   4173   2.584   0.854   3.913
 1392SOL  OW    4174   2.599   1.100   0.158
 1392SOL  HW1   4175   2.534   1.156   0.209
 1392SOL  HW2   4176   2.585   1.113   0.060
 1393SOL  OW    4177   2.624   1.116   0.474
 1393SOL  HW1   4178   2.643   1.210   0.446
 1393SOL  HW2   4179   2.645   1.105   0.571
 1394SOL  OW    4180   2.647   1.095   0.739
 1394SOL  HW1   4181   2.591   1.013   0.752
 1394SOL  HW2   4182   2.726   1.073   0.682
 1395SOL  OW    4183   2.631   1.076   1.110
 1395SOL  HW1   4184   2.621   1.175   1.120
 1395SOL  HW2   4185   2.600   1.047   1.020
 1396SOL  OW    4186   2.640   1.045   1.355
 1396SOL  HW1   4187   2.602   1.007   1.271
 1396SOL  HW2   4188   2.602   0.997   1.434
 1397SOL  OW    4189   2.581   1.076   1.659
 1397SOL  HW1   4190   2.645   1.124   1.598
 1397SOL  HW2   4191   2.528   1.143   1.711
 1398SOL  OW    4192   2.633   1.081   2.027
 1398SOL  HW1   4193   2.676   1.165   1.993
 1398SOL  HW2   4194   2.691   1.003   2.003
 1399SOL  OW    4195   2.598   1.078   2.277
 1399SOL  HW1   4196   2.618   1.025   2.359
 1399SOL  HW2   4197   2.503   1.063   2.250
 1400SOL  OW    4198   2.646   1.051   2.584
 1400SOL  HW1   4199   2.725   1.042   2.522
 1400SOL  HW2   4200   2.584   0.974   2.570
 1401SOL  OW    4201   2.592   1.101   2.892
 1401SOL  HW1   4202   2.571   1.005   2.878
 1401SOL  HW2   4203   2.507   1.152   2.910
 1402SOL  OW    4204   2.625   1.097   3.251
 1402SOL  HW1   4205   2.683   1.094   3.332
 1402SOL  HW2   4206   2.657   1.030   3.184
 1403SOL  OW    4207   2.591   1.042   3.534
 1403SOL  HW1   4208   2.647   1.122   3.557
 1403SOL  HW2   4209   2.586   0.981   3.614
 1404SOL  OW    4210   2.592   1.093   3.835
 1404SOL  HW1   4211   2.553   1.031   3.766
 1404SOL  HW2   4212   2.689   1.075   3.845
 1405SOL  OW    4213   2.611   1.354   0.159
 1405SOL  HW1   4214   2.569   1.270   0.124
 1405SOL  HW2   4215   2.697   1.331   0.206
 1406SOL  OW    4216   2.590   1.399   0.427
 1406SOL  HW1   4217   2.671   1.431   0.477
 1406SOL  HW2   4218   2.611   1.393   0.330
 1407SOL  OW    4219   2.653   1.399   0.744
 1407SOL  HW1   4220   2.570   1.384   0.690
 1407SOL  HW2   4221   2.692   1.311   0.772
 1408SOL  OW    4222   2.577   1.371   1.049
 1408SOL  HW1   4223   2.587   1.444   1.117
 1408SOL  HW2   4224   2.666   1.332   1.028
 1409SOL  OW    4225   2.593   1.414   1.393
 1409SOL  HW1   4226   2.621   1.328   1.351
 1409SOL  HW2   4227   2.608   1.410   1.492
 1410SOL  OW    4228   2.590   1.389   1.673
 1410SOL  HW1   4229   2.631   1.472   1.635
 1410SOL  HW2   4230   2.658   1.317   1.677
 1411SOL  OW    4231   2.653   1.347   2.019
 1411SOL  HW1   4232   2.636   1.249   2.009
 1411SOL  HW2   4233   2.726   1.374   1.955
 1412SOL  OW    4234   2.637   1.350   2.281
 1412SOL  HW1   4235   2.719   1.336   2.226
 1412SOL  HW2   4236   2.663   1.386   2.371
 1413SOL  OW    4237   2.606   1.414   2.618
 1413SOL  HW1   4238   2.672   1.475   2.664
 1413SOL  HW2   4239   2.522   1.465   2.599
 1414SOL  OW    4240   2.628   1.407   2.949
 1414SOL  HW1   4241   2.534   1.433   2.927
 1414SOL  HW2   4242   2.676   1.379   2.866
 1415SOL  OW    4243   2.613   1.385   3.248
 1415SOL  HW1   4244   2.523   1.346   3.265
 1415SOL  HW2   4245   2.605   1.468   3.192
 1416SOL  OW    4246   2.596   1.413   3.500
 1416SOL  HW1   4247   2.587   1.478   3.576
 1416SOL  HW2   4248   2.693   1.407   3.473
 1417SOL  OW    4249   2.591   1.409   3.833
 1417SOL  HW1   4250   2.519   1.475   3.814
 1417SOL  HW2   4251   2.568   1.358   3.916
 1418SOL  OW    4252   2.587   1.667   0.156
 1418SOL  HW1   4253   2.585   1.685   0.255
 1418SOL  HW2   4254   2.681   1.646   0.129
 1419SOL  OW    4255   2.643   1.658   0.424
 1419SOL  HW1   4256   2.684   1.581   0.473
 1419SOL  HW2   4257   2.544   1.648   0.423
 1420SOL  OW    4258   2.613   1.729   0.752
 1420SOL  HW1   4259   2.534   1.786   0.776
 1420SOL  HW2   4260   2.581   1.637   0.728
 1421SOL  OW    4261   2.652   1.723   1.060
 1421SOL  HW1   4262   2.699   1.782   0.993
 1421SOL  HW2   4263   2.660   1.764   1.151
 1422SOL  OW    4264   2.641   1.707   1.386
 1422SOL  HW1   4265   2.582   1.722   1.306
 1422SOL  HW2   4266   2.637   1.611   1.413
 1423SOL  OW    4267   2.609   1.718   1.716
 1423SOL  HW1   4268   2.592   1.813   1.739
 1423SOL  HW2   4269   2.526   1.664   1.733
 1424SOL  OW    4270   2.636   1.732   1.998
 1424SOL  HW1   4271   2.661   1.723   2.095
 1424SOL  HW2   4272   2.673   1.818   1.962
 1425SOL  OW    4273   2.640   1.721   2.285
 1425SOL  HW1   4274   2.686   1.700   2.371
 1425SOL  HW2   4275   2.705   1.713   2.209
 1426SOL  OW    4276   2.579   1.685   2.644
 1426SOL  HW1   4277   2.543   1.721   2.558
 1426SOL  HW2   4278   2.625   1.598   2.626
 1427SOL  OW    4279   2.599   1.708   2.884
 1427SOL  HW1   4280   2.636   1.638   2.943
 1427SOL  HW2   4281   2.541   1.666   2.814
 1428SOL  OW    4282   2.604   1.702   3.201
 1428SOL  HW1   4283   2.592   1.607   3.172
 1428SOL  HW2   4284   2.523   1.754   3.176
 1429SOL  OW    4285   2.647   1.665   3.571
 1429SOL  HW1   4286   2.703   1.742   3.542
 1429SOL  HW2   4287   2.553   1.677   3.539
 1430SOL  OW    4288   2.593   1.732   3.855
 1430SOL  HW1   4289   2.577   1.797   3.929
 1430SOL  HW2   4290   2.691   1.715   3.845
 1431SOL  OW    4291   2.582   1.965   0.120
 1431SOL  HW1   4292   2.551   1.873   0.098
 1431SOL  HW2   4293   2.537   1.997   0.203
 1432SOL  OW    4294   2.623   2.025   0.454
 1432SOL  HW1   4295   2.532   2.041   0.414
 1432SOL  HW2   4296   2.653   1.932   0.432
 1433SOL  OW    4297   2.611   2.007   0.772
 1433SOL  HW1   4298   2.604   1.909   0.787
 1433SOL  HW2   4299   2.527   2.040   0.728
 1434SOL  OW    4300   2.630   1.998   1.094
 1434SOL  HW1   4301   2.634   2.057   1.013
 1434SOL  HW2   4302   2.722   1.964   1.115
 1435SOL  OW    4303   2.655   1.988   1.346
 1435SOL  HW1   4304   2.592   2.065   1.349
 1435SOL  HW2   4305   2.743   2.016   1.385
 1436SOL  OW    4306   2.585   2.004   1.680
 1436SOL  HW1   4307   2.602   2.094   1.720
 1436SOL  HW2   4308   2.663   1.944   1.700
 1437SOL  OW    4309   2.651   2.010   2.002
 1437SOL  HW1   4310   2.683   1.917   2.018
 1437SOL  HW2   4311   2.670   2.036   1.907
 1438SOL  OW    4312   2.639   1.981   2.333
 1438SOL  HW1   4313   2.672   2.032   2.412
 1438SOL  HW2   4314   2.672   2.024   2.249
 1439SOL  OW    4315   2.576   2.010   2.650
 1439SOL  HW1   4316   2.670   1.997   2.682
 1439SOL  HW2   4317   2.525   1.924   2.659
 1440SOL  OW    4318   2.638   2.028   2.915
 1440SOL  HW1   4319   2.540   2.011   2.924
 1440SOL  HW2   4320   2.681   2.024   3.005
 1441SOL  OW    4321   2.641   2.004   3.240
 1441SOL  HW1   4322   2.637   2.093   3.195
 1441SOL  HW2   4323   2.583   2.005   3.322
 1442SOL  OW    4324   2.580   1.976   3.543
 1442SOL  HW1   4325   2.519   2.018   3.610
 1442SOL  HW2   4326   2.624   1.896   3.583
 1443SOL  OW    4327   2.580   2.019   3.873
 1443SOL  HW1   4328   2.489   1.998   3.909
 1443SOL  HW2   4329   2.610   2.108   3.908
 1444SOL  OW    4330   2.649   2.276   0.189
 1444SOL  HW1   4331   2.652   2.357   0.131
 1444SOL  HW2   4332   2.627   2.303   0.283
 1445SOL  OW    4333   2.581   2.306   0.489
 1445SOL  HW1   4334   2.619   2.387   0.533
 1445SOL  HW2   4335   2.620   2.296   0.397
 1446SOL  OW    4336   2.581   2.269   0.731
 1446SOL  HW1   4337   2.494   2.314   0.753
 1446SOL  HW2   4338   2.645   2.283   0.807
 1447SOL  OW    4339   2.616   2.333   1.047
 1447SOL  HW1   4340   2.613   2.356   0.950
 1447SOL  HW2   4341   2.697   2.374   1.088
 1448SOL  OW    4342   2.585   2.313   1.363
 1448SOL  HW1   4343   2.539   2.384   1.416
 1448SOL  HW2   4344   2.518   2.260   1.312
 1449SOL  OW    4345   2.634   2.344   1.714
 1449SOL  HW1   4346   2.646   2.245   1.701
 1449SOL  HW2   4347   2.688   2.375   1.792
 1450SOL  OW    4348   2.646   2.309   2.027
 1450SOL  HW1   4349   2.739   2.342   2.037
 1450SOL  HW2   4350   2.596   2.321   2.113
 1451SOL  OW    4351   2.590   2.273   2.320
 1451SOL  HW1   4352   2.494   2.254   2.340
 1451SOL  HW2   4353   2.636   2.188   2.294
 1452SOL  OW    4354   2.580   2.339   2.631
 1452SOL  HW1   4355   2.637   2.271   2.676
 1452SOL  HW2   4356   2.505   2.365   2.692
 1453SOL  OW    4357   2.652   2.293   2.922
 1453SOL  HW1   4358   2.602   2.248   2.997
 1453SOL  HW2   4359   2.596   2.289   2.839
 1454SOL  OW    4360   2.635   2.287   3.234
 1454SOL  HW1   4361   2.657   2.232   3.314
 1454SOL  HW2   4362   2.650   2.384   3.255
 1455SOL  OW    4363   2.628   2.346   3.558
 1455SOL  HW1   4364   2.588   2.264   3.599
 1455SOL  HW2   4365   2.607   2.425   3.615
 1456SOL  OW    4366   2.585   2.306   3.853
 1456SOL  HW1   4367   2.489   2.278   3.864
 1456SOL  HW2   4368   2.643   2.225   3.855
 1457SOL  OW    4369   2.587   2.610   0.137
 1457SOL  HW1   4370   2.611   2.518   0.166
 1457SOL  HW2   4371   2.556   2.607   0.042
 1458SOL  OW    4372   2.585   2.616   0.435
 1458SOL  HW1   4373   2.494   2.576   0.440
 1458SOL  HW2   4374   2.652   2.553   0.474
 1459SOL  OW    4375   2.623   2.589   0.787
 1459SOL  HW1   4376   2.718   2.606   0.761
 1459SOL  HW2   4377   2.613   2.494   0.817
 1460SOL  OW    4378   2.591   2.647   1.039
 1460SOL  HW1   4379   2.622   2.735   1.003
 1460SOL  HW2   4380   2.492   2.650   1.053
 1461SOL  OW    4381   2.617   2.601   1.363
 1461SOL  HW1   4382   2.572   2.650   1.437
 1461SOL  HW2   4383   2.620   2.503   1.383
 1462SOL  OW    4384   2.613   2.643   1.726
 1462SOL  HW1   4385   2.634   2.740   1.722
 1462SOL  HW2   4386   2.527   2.626   1.678
 1463SOL  OW    4387   2.600   2.588   2.018
 1463SOL  HW1   4388   2.645   2.506   1.983
 1463SOL  HW2   4389   2.667   2.648   2.060
 1464SOL  OW    4390   2.622   2.591   2.329
 1464SOL  HW1   4391   2.667   2.675   2.361
 1464SOL  HW2   4392   2.665   2.562   2.243
 1465SOL  OW    4393   2.617   2.628   2.604
 1465SOL  HW1   4394   2.640   2.627   2.701
 1465SOL  HW2   4395   2.674   2.561   2.556
 1466SOL  OW    4396   2.611   2.590   2.944
 1466SOL  HW1   4397   2.554   2.643   3.007
 1466SOL  HW2   4398   2.672   2.530   2.996
 1467SOL  OW    4399   2.588   2.638   3.255
 1467SOL  HW1   4400   2.529   2.590   3.189
 1467SOL  HW2   4401   2.578   2.596   3.345
 1468SOL  OW    4402   2.635   2.577   3.520
 1468SOL  HW1   4403   2.591   2.561   3.432
 1468SOL  HW2   4404   2.646   2.675   3.535
 1469SOL  OW    4405   2.613   2.623   3.880
 1469SOL  HW1   4406   2.589   2.602   3.785
 1469SOL  HW2   4407   2.539   2.592   3.940
 1470SOL  OW    4408   2.605   2.953   0.127
 1470SOL  HW1   4409   2.554   3.039   0.130
 1470SOL  HW2   4410   2.639   2.931   0.219
 1471SOL  OW    4411   2.605   2.887   0.481
 1471SOL  HW1   4412   2.695   2.860   0.514
 1471SOL  HW2   4413   2.534   2.842   0.535
 1472SOL  OW    4414   2.587   2.904   0.791
 1472SOL  HW1   4415   2.607   2.874   0.698
 1472SOL  HW2   4416   2.493   2.937   0.797
 1473SOL  OW    4417   2.618   2.884   1.037
 1473SOL  HW1   4418   2.552   2.858   0.967
 1473SOL  HW2   4419   2.597   2.976   1.070
 1474SOL  OW    4420   2.616   2.907   1.359
 1474SOL  HW1   4421   2.616   3.007   1.349
 1474SOL  HW2   4422   2.584   2.883   1.450
 1475SOL  OW    4423   2.624   2.901   1.700
 1475SOL  HW1   4424   2.692   2.842   1.744
 1475SOL  HW2   4425   2.592   2.969   1.766
 1476SOL  OW    4426   2.606   2.898   1.971
 1476SOL  HW1   4427   2.545   2.961   2.020
 1476SOL  HW2   4428   2.654   2.948   1.899
 1477SOL  OW    4429   2.594   2.885   2.292
 1477SOL  HW1   4430   2.517   2.837   2.252
 1477SOL  HW2   4431   2.567   2.978   2.317
 1478SOL  OW    4432   2.648   2.950   2.605
 1478SOL  HW1   4433   2.650   2.944   2.705
 1478SOL  HW2   4434   2.624   2.860   2.567
 1479SOL  OW    4435   2.621   2.928   2.949
 1479SOL  HW1   4436   2.665   2.880   2.874
 1479SOL  HW2   4437   2.546   2.984   2.914
 1480SOL  OW    4438   2.594   2.907   3.215
 1480SOL  HW1   4439   2.652   2.883   3.293
 1480SOL  HW2   4440   2.539   2.987   3.238
 1481SOL  OW    4441   2.579   2.908   3.569
 1481SOL  HW1   4442   2.609   2.830   3.624
 1481SOL  HW2   4443   2.565   2.988   3.628
 1482SOL  OW    4444   2.648   2.892   3.843
 1482SOL  HW1   4445   2.565   2.927   3.885
 1482SOL  HW2   4446   2.682   2.814   3.896
 1483SOL  OW    4447   2.606   3.230   0.158
 1483SOL  HW1   4448   2.578   3.305   0.098
 1483SOL  HW2   4449   2.665   3.265   0.231
 1484SOL  OW    4450   2.577   3.258   0.499
 1484SOL  HW1   4451   2.566   3.234   0.403
 1484SOL  HW2   4452   2.565   3.177   0.556
 1485SOL  OW    4453   2.628   3.244   0.771
 1485SOL  HW1   4454   2.693   3.287   0.709
 1485SOL  HW2   4455   2.672   3.225   0.859
 1486SOL  OW    4456   2.602   3.203   1.084
 1486SOL  HW1   4457   2.518   3.191   1.137
 1486SOL  HW2   4458   2.611   3.127   1.018
 1487SOL  OW    4459   2.579   3.257   1.378
 1487SOL  HW1   4460   2.664   3.205   1.378
 1487SOL  HW2   4461   2.572   3.311   1.294
 1488SOL  OW    4462   2.609   3.217   1.730
 1488SOL  HW1   4463   2.536   3.193   1.794
 1488SOL  HW2   4464   2.599   3.162   1.647
 1489SOL  OW    4465   2.589   3.203   1.973
 1489SOL  HW1   4466   2.496   3.212   2.008
 1489SOL  HW2   4467   2.588   3.200   1.873
 1490SOL  OW    4468   2.628   3.270   2.287
 1490SOL  HW1   4469   2.537   3.236   2.261
 1490SOL  HW2   4470   2.694   3.246   2.215
 1491SOL  OW    4471   2.648   3.213   2.627
 1491SOL  HW1   4472   2.619   3.302   2.664
 1491SOL  HW2   4473   2.631   3.211   2.529
 1492SOL  OW    4474   2.579   3.230   2.935
 1492SOL  HW1   4475   2.629   3.288   2.871
 1492SOL  HW2   4476   2.636   3.154   2.964
 1493SOL  OW    4477   2.618   3.210   3.257
 1493SOL  HW1   4478   2.702   3.244   3.300
 1493SOL  HW2   4479   2.582   3.279   3.195
 1494SOL  OW    4480   2.653   3.228   3.549
 1494SOL  HW1   4481   2.710   3.223   3.467
 1494SOL  HW2   4482   2.579   3.160   3.543
 1495SOL  OW    4483   2.639   3.210   3.875
 1495SOL  HW1   4484   2.614   3.160   3.959
 1495SOL  HW2   4485   2.705   3.282   3.897
 1496SOL  OW    4486   2.598   3.561   0.123
 1496SOL  HW1   4487   2.635   3.519   0.206
 1496SOL  HW2   4488   2.618   3.502   0.044
 1497SOL  OW    4489   2.598   3.541   0.464
 1497SOL  HW1   4490   2.519   3.571   0.410
 1497SOL  HW2   4491   2.568   3.509   0.553
 1498SOL  OW    4492   2.643   3.578   0.738
 1498SOL  HW1   4493   2.652   3.542   0.831
 1498SOL  HW2   4494   2.733   3.578   0.693
 1499SOL  OW    4495   2.597   3.527   1.075
 1499SOL  HW1   4496   2.528   3.456   1.063
 1499SOL  HW2   4497   2.666   3.496   1.141
 1500SOL  OW    4498   2.615   3.567   1.406
 1500SOL  HW1   4499   2.517   3.583   1.390
 1500SOL  HW2   4500   2.628   3.475   1.443
 1501SOL  OW    4501   2.577   3.535   1.702
 1501SOL  HW1   4502   2.606   3.475   1.776
 1501SOL  HW2   4503   2.656   3.586   1.668
 1502SOL  OW    4504   2.612   3.509   1.992
 1502SOL  HW1   4505   2.694   3.502   2.049
 1502SOL  HW2   4506   2.554   3.429   2.008
 1503SOL  OW    4507   2.608   3.513   2.328
 1503SOL  HW1   4508   2.586   3.610   2.313
 1503SOL  HW2   4509   2.557   3.457   2.264
 1504SOL  OW    4510   2.601   3.546   2.617
 1504SOL  HW1   4511   2.594   3.592   2.528
 1504SOL  HW2   4512   2.556   3.456   2.611
 1505SOL  OW    4513   2.646   3.508   2.892
 1505SOL  HW1   4514   2.626   3.473   2.984
 1505SOL  HW2   4515   2.615   3.603   2.886
 1506SOL  OW    4516   2.599   3.533   3.215
 1506SOL  HW1   4517   2.519   3.584   3.244
 1506SOL  HW2   4518   2.571   3.446   3.174
 1507SOL  OW    4519   2.636   3.518   3.505
 1507SOL  HW1   4520   2.730   3.491   3.482
 1507SOL  HW2   4521   2.629   3.618   3.502
 1508SOL  OW    4522   2.608   3.560   3.874
 1508SOL  HW1   4523   2.601   3.494   3.800
 1508SOL  HW2   4524   2.687   3.537   3.931
 1509SOL  OW    4525   2.634   3.851   0.172
 1509SOL  HW1   4526   2.688   3.934   0.179
 1509SOL  HW2   4527   2.581   3.853   0.087
 1510SOL  OW    4528   2.630   3.825   0.466
 1510SOL  HW1   4529   2.593   3.914   0.440
 1510SOL  HW2   4530   2.705   3.837   0.530
 1511SOL  OW    4531   2.637   3.832   0.782
 1511SOL  HW1   4532   2.556   3.848   0.838
 1511SOL  HW2   4533   2.685   3.918   0.766
 1512SOL  OW    4534   2.614   3.846   1.044
 1512SOL  HW1   4535   2.544   3.786   1.083
 1512SOL  HW2   4536   2.653   3.804   0.963
 1513SOL  OW    4537   2.629   3.875   1.356
 1513SOL  HW1   4538   2.599   3.901   1.264
 1513SOL  HW2   4539   2.722   3.839   1.352
 1514SOL  OW    4540   2.605   3.810   1.655
 1514SOL  HW1   4541   2.691   3.839   1.696
 1514SOL  HW2   4542   2.622   3.775   1.563
 1515SOL  OW    4543   2.655   3.846   1.988
 1515SOL  HW1   4544   2.717   3.768   1.992
 1515SOL  HW2   4545   2.577   3.829   2.050
 1516SOL  OW    4546   2.597   3.885   2.288
 1516SOL  HW1   4547   2.526   3.930   2.341
 1516SOL  HW2   4548   2.617   3.795   2.329
 1517SOL  OW    4549   2.633   3.829   2.581
 1517SOL  HW1   4550   2.695   3.771   2.635
 1517SOL  HW2   4551   2.667   3.835   2.487
 1518SOL  OW    4552   2.630   3.806   2.937
 1518SOL  HW1   4553   2.543   3.772   2.902
 1518SOL  HW2   4554   2.682   3.848   2.862
 1519SOL  OW    4555   2.595   3.866   3.252
 1519SOL  HW1   4556   2.512   3.818   3.225
 1519SOL  HW2   4557   2.609   3.945   3.193
 1520SOL  OW    4558   2.633   3.808   3.555
 1520SOL  HW1   4559   2.692   3.818   3.635
 1520SOL  HW2   4560   2.642   3.715   3.519
 1521SOL  OW    4561   2.655   3.826   3.828
 1521SOL  HW1   4562   2.659   3.823   3.728
 1521SOL  HW2   4563   2.728   3.769   3.866
 1522SOL  OW    4564   2.948   0.127   0.167
 1522SOL  HW1   4565   2.949   0.198   0.096
 1522SOL  HW2   4566   2.988   0.043   0.130
 1523SOL  OW    4567   2.943   0.117   0.466
 1523SOL  HW1   4568   2.871   0.054   0.493
 1523SOL  HW2   4569   2.954   0.116   0.366
 1524SOL  OW    4570   2.929   0.138   0.799
 1524SOL  HW1   4571   2.944   0.132   0.898
 1524SOL  HW2   4572   3.010   0.105   0.751
 1525SOL  OW    4573   2.896   0.143   1.105
 1525SOL  HW1   4574   2.803   0.107   1.110
 1525SOL  HW2   4575   2.953   0.100   1.175
 1526SOL  OW    4576   2.898   0.180   1.351
 1526SOL  HW1   4577   2.893   0.080   1.343
 1526SOL  HW2   4578   2.908   0.205   1.447
 1527SOL  OW    4579   2.922   0.120   1.707
 1527SOL  HW1   4580   2.954   0.149   1.616
 1527SOL  HW2   4581   2.833   0.076   1.698
 1528SOL  OW    4582   2.946   0.182   2.039
 1528SOL  HW1   4583   2.866   0.229   2.075
 1528SOL  HW2   4584   2.982   0.119   2.107
 1529SOL  OW    4585   2.937   0.175   2.308
 1529SOL  HW1   4586   2.959   0.222   2.223
 1529SOL  HW2   4587   2.909   0.243   2.377
 1530SOL  OW    4588   2.956   0.165   2.646
 1530SOL  HW1   4589   2.947   0.124   2.737
 1530SOL  HW2   4590   2.911   0.107   2.578
 1531SOL  OW    4591   2.902   0.154   2.941
 1531SOL  HW1   4592   2.963   0.089   2.896
 1531SOL  HW2   4593   2.853   0.106   3.015
 1532SOL  OW    4594   2.899   0.131   3.269
 1532SOL  HW1   4595   2.989   0.115   3.228
 1532SOL  HW2   4596   2.855   0.043   3.287
 1533SOL  OW    4597   2.918   0.128   3.525
 1533SOL  HW1   4598   2.966   0.213   3.547
 1533SOL  HW2   4599   2.868   0.139   3.439
 1534SOL  OW    4600   2.915   0.164   3.880
 1534SOL  HW1   4601   2.943   0.127   3.791
 1534SOL  HW2   4602   2.928   0.263   3.880
 1535SOL  OW    4603   2.962   0.474   0.170
 1535SOL  HW1   4604   2.976   0.567   0.137
 1535SOL  HW2   4605   2.888   0.473   0.237
 1536SOL  OW    4606   2.909   0.490   0.439
 1536SOL  HW1   4607   2.959   0.405   0.455
 1536SOL  HW2   4608   2.868   0.488   0.348
 1537SOL  OW    4609   2.892   0.499   0.798
 1537SOL  HW1   4610   2.954   0.514   0.875
 1537SOL  HW2   4611   2.888   0.402   0.776
 1538SOL  OW    4612   2.907   0.476   1.074
 1538SOL  HW1   4613   2.808   0.462   1.079
 1538SOL  HW2   4614   2.929   0.532   0.995
 1539SOL  OW    4615   2.909   0.444   1.355
 1539SOL  HW1   4616   2.933   0.371   1.292
 1539SOL  HW2   4617   2.983   0.457   1.421
 1540SOL  OW    4618   2.927   0.457   1.693
 1540SOL  HW1   4619   2.906   0.514   1.614
 1540SOL  HW2   4620   2.877   0.371   1.687
 1541SOL  OW    4621   2.900   0.497   2.011
 1541SOL  HW1   4622   2.844   0.416   2.026
 1541SOL  HW2   4623   2.851   0.562   1.953
 1542SOL  OW    4624   2.955   0.430   2.318
 1542SOL  HW1   4625   2.981   0.487   2.240
 1542SOL  HW2   4626   2.984   0.336   2.301
 1543SOL  OW    4627   2.951   0.448   2.591
 1543SOL  HW1   4628   2.987   0.499   2.513
 1543SOL  HW2   4629   2.996   0.480   2.675
 1544SOL  OW    4630   2.904   0.443   2.919
 1544SOL  HW1   4631   2.886   0.526   2.972
 1544SOL  HW2   4632   3.002   0.437   2.900
 1545SOL  OW    4633   2.909   0.443   3.243
 1545SOL  HW1   4634   2.920   0.543   3.244
 1545SOL  HW2   4635   2.906   0.412   3.148
 1546SOL  OW    4636   2.887   0.449   3.554
 1546SOL  HW1   4637   2.978   0.435   3.513
 1546SOL  HW2   4638   2.897   0.490   3.644
 1547SOL  OW    4639   2.897   0.439   3.822
 1547SOL  HW1   4640   2.871   0.358   3.770
 1547SOL  HW2   4641   2.868   0.521   3.773
 1548SOL  OW    4642   2.883   0.767   0.117
 1548SOL  HW1   4643   2.911   0.674   0.093
 1548SOL  HW2   4644   2.885   0.778   0.216
 1549SOL  OW    4645   2.905   0.809   0.495
 1549SOL  HW1   4646   2.876   0.846   0.407
 1549SOL  HW2   4647   2.871   0.867   0.569
 1550SOL  OW    4648   2.900   0.754   0.766
 1550SOL  HW1   4649   2.916   0.731   0.670
 1550SOL  HW2   4650   2.805   0.782   0.779
 1551SOL  OW    4651   2.951   0.793   1.047
 1551SOL  HW1   4652   2.934   0.719   0.983
 1551SOL  HW2   4653   3.022   0.766   1.112
 1552SOL  OW    4654   2.893   0.763   1.414
 1552SOL  HW1   4655   2.839   0.729   1.491
 1552SOL  HW2   4656   2.844   0.746   1.329
 1553SOL  OW    4657   2.954   0.738   1.698
 1553SOL  HW1   4658   3.036   0.776   1.657
 1553SOL  HW2   4659   2.877   0.800   1.682
 1554SOL  OW    4660   2.896   0.784   2.033
 1554SOL  HW1   4661   2.891   0.787   2.133
 1554SOL  HW2   4662   2.922   0.874   1.998
 1555SOL  OW    4663   2.919   0.736   2.314
 1555SOL  HW1   4664   3.000   0.791   2.336
 1555SOL  HW2   4665   2.949   0.645   2.286
 1556SOL  OW    4666   2.916   0.794   2.603
 1556SOL  HW1   4667   2.962   0.706   2.592
 1556SOL  HW2   4668   2.979   0.868   2.580
 1557SOL  OW    4669   2.953   0.751   2.896
 1557SOL  HW1   4670   3.010   0.817   2.847
 1557SOL  HW2   4671   3.010   0.699   2.959
 1558SOL  OW    4672   2.908   0.732   3.213
 1558SOL  HW1   4673   2.817   0.775   3.217
 1558SOL  HW2   4674   2.970   0.790   3.161
 1559SOL  OW    4675   2.936   0.741   3.507
 1559SOL  HW1   4676   2.965   0.672   3.440
 1559SOL  HW2   4677   2.994   0.734   3.589
 1560SOL  OW    4678   2.894   0.735   3.876
 1560SOL  HW1   4679   2.889   0.638   3.897
 1560SOL  HW2   4680   2.926   0.748   3.782
 1561SOL  OW    4681   2.959   1.041   0.175
 1561SOL  HW1   4682   2.905   1.041   0.259
 1561SOL  HW2   4683   3.054   1.060   0.196
 1562SOL  OW    4684   2.942   1.117   0.449
 1562SOL  HW1   4685   3.020   1.070   0.491
 1562SOL  HW2   4686   2.906   1.062   0.374
 1563SOL  OW    4687   2.906   1.073   0.798
 1563SOL  HW1   4688   2.937   1.003   0.862
 1563SOL  HW2   4689   2.956   1.064   0.712
 1564SOL  OW    4690   2.941   1.075   1.056
 1564SOL  HW1   4691   2.904   0.983   1.068
 1564SOL  HW2   4692   3.040   1.072   1.069
 1565SOL  OW    4693   2.941   1.105   1.377
 1565SOL  HW1   4694   2.917   1.113   1.473
 1565SOL  HW2   4695   3.002   1.027   1.364
 1566SOL  OW    4696   2.937   1.069   1.691
 1566SOL  HW1   4697   2.864   1.086   1.757
 1566SOL  HW2   4698   2.995   0.995   1.724
 1567SOL  OW    4699   2.925   1.099   2.038
 1567SOL  HW1   4700   2.919   1.047   2.123
 1567SOL  HW2   4701   3.016   1.140   2.030
 1568SOL  OW    4702   2.919   1.064   2.298
 1568SOL  HW1   4703   2.925   0.965   2.309
 1568SOL  HW2   4704   3.010   1.104   2.298
 1569SOL  OW    4705   2.894   1.061   2.582
 1569SOL  HW1   4706   2.865   0.968   2.558
 1569SOL  HW2   4707   2.839   1.093   2.660
 1570SOL  OW    4708   2.917   1.050   2.911
 1570SOL  HW1   4709   2.870   1.137   2.927
 1570SOL  HW2   4710   2.854   0.974   2.927
 1571SOL  OW    4711   2.947   1.057   3.240
 1571SOL  HW1   4712   2.987   0.969   3.266
 1571SOL  HW2   4713   2.902   1.098   3.319
 1572SOL  OW    4714   2.955   1.082   3.514
 1572SOL  HW1   4715   2.911   1.080   3.603
 1572SOL  HW2   4716   2.887   1.066   3.442
 1573SOL  OW    4717   2.911   1.084   3.847
 1573SOL  HW1   4718   2.855   1.011   3.807
 1573SOL  HW2   4719   2.950   1.140   3.773
 1574SOL  OW    4720   2.895   1.380   0.157
 1574SOL  HW1   4721   2.993   1.388   0.137
 1574SOL  HW2   4722   2.862   1.466   0.197
 1575SOL  OW    4723   2.904   1.394   0.427
 1575SOL  HW1   4724   2.999   1.362   0.431
 1575SOL  HW2   4725   2.873   1.394   0.332
 1576SOL  OW    4726   2.910   1.409   0.750
 1576SOL  HW1   4727   2.877   1.350   0.676
 1576SOL  HW2   4728   2.965   1.483   0.712
 1577SOL  OW    4729   2.931   1.377   1.062
 1577SOL  HW1   4730   3.007   1.335   1.112
 1577SOL  HW2   4731   2.966   1.418   0.978
 1578SOL  OW    4732   2.956   1.372   1.364
 1578SOL  HW1   4733   2.909   1.361   1.451
 1578SOL  HW2   4734   2.998   1.463   1.359
 1579SOL  OW    4735   2.956   1.404   1.707
 1579SOL  HW1   4736   2.951   1.495   1.750
 1579SOL  HW2   4737   3.050   1.372   1.708
 1580SOL  OW    4738   2.887   1.355   2.011
 1580SOL  HW1   4739   2.796   1.378   2.045
 1580SOL  HW2   4740   2.940   1.311   2.084
 1581SOL  OW    4741   2.900   1.363   2.330
 1581SOL  HW1   4742   2.815   1.320   2.361
 1581SOL  HW2   4743   2.954   1.296   2.279
 1582SOL  OW    4744   2.906   1.350   2.578
 1582SOL  HW1   4745   2.968   1.276   2.555
 1582SOL  HW2   4746   2.870   1.391   2.494
 1583SOL  OW    4747   2.919   1.394   2.953
 1583SOL  HW1   4748   2.910   1.452   3.033
 1583SOL  HW2   4749   2.943   1.450   2.874
 1584SOL  OW    4750   2.892   1.360   3.233
 1584SOL  HW1   4751   2.861   1.454   3.252
 1584SOL  HW2   4752   2.865   1.335   3.141
 1585SOL  OW    4753   2.912   1.383   3.572
 1585SOL  HW1   4754   2.938   1.288   3.587
 1585SOL  HW2   4755   2.986   1.443   3.603
 1586SOL  OW    4756   2.927   1.378   3.885
 1586SOL  HW1   4757   2.874   1.456   3.851
 1586SOL  HW2   4758   2.926   1.305   3.817
 1587SOL  OW    4759   2.888   1.727   0.154
 1587SOL  HW1   4760   2.806   1.681   0.120
 1587SOL  HW2   4761   2.960   1.722   0.084
 1588SOL  OW    4762   2.923   1.726   0.462
 1588SOL  HW1   4763   2.860   1.654   0.435
 1588SOL  HW2   4764   3.007   1.719   0.408
 1589SOL  OW    4765   2.918   1.674   0.782
 1589SOL  HW1   4766   3.007   1.702   0.746
 1589SOL  HW2   4767   2.926   1.583   0.822
 1590SOL  OW    4768   2.929   1.669   1.094
 1590SOL  HW1   4769   2.920   1.711   1.003
 1590SOL  HW2   4770   3.006   1.606   1.093
 1591SOL  OW    4771   2.935   1.684   1.345
 1591SOL  HW1   4772   2.957   1.656   1.438
 1591SOL  HW2   4773   2.931   1.784   1.340
 1592SOL  OW    4774   2.919   1.653   1.658
 1592SOL  HW1   4775   2.914   1.604   1.745
 1592SOL  HW2   4776   2.880   1.744   1.669
 1593SOL  OW    4777   2.918   1.659   1.982
 1593SOL  HW1   4778   2.856   1.605   1.925
 1593SOL  HW2   4779   2.874   1.677   2.070
 1594SOL  OW    4780   2.936   1.677   2.348
 1594SOL  HW1   4781   3.020   1.695   2.398
 1594SOL  HW2   4782   2.952   1.604   2.281
 1595SOL  OW    4783   2.956   1.699   2.653
 1595SOL  HW1   4784   3.015   1.626   2.618
 1595SOL  HW2   4785   2.884   1.718   2.586
 1596SOL  OW    4786   2.953   1.678   2.943
 1596SOL  HW1   4787   2.878   1.690   2.877
 1596SOL  HW2   4788   2.963   1.580   2.963
 1597SOL  OW    4789   2.894   1.707   3.230
 1597SOL  HW1   4790   2.919   1.743   3.320
 1597SOL  HW2   4791   2.976   1.697   3.174
 1598SOL  OW    4792   2.884   1.674   3.575
 1598SOL  HW1   4793   2.938   1.715   3.649
 1598SOL  HW2   4794   2.861   1.745   3.508
 1599SOL  OW    4795   2.908   1.667   3.821
 1599SOL  HW1   4796   2.892   1.644   3.725
 1599SOL  HW2   4797   3.005   1.690   3.834
 1600SOL  OW    4798   2.921   2.027   0.174
 1600SOL  HW1   4799   2.972   1.950   0.214
 1600SOL  HW2   4800   2.963   2.053   0.087
 1601SOL  OW    4801   2.918   1.977   0.425
 1601SOL  HW1   4802   2.999   1.993   0.481
 1601SOL  HW2   4803   2.867   2.062   0.416
 1602SOL  OW    4804   2.920   2.025   0.788
 1602SOL  HW1   4805   2.893   1.940   0.744
 1602SOL  HW2   4806   2.869   2.036   0.873
 1603SOL  OW    4807   2.916   2.008   1.072
 1603SOL  HW1   4808   2.866   1.935   1.023
 1603SOL  HW2   4809   2.885   2.097   1.039
 1604SOL  OW    4810   2.929   2.001   1.399
 1604SOL  HW1   4811   2.893   1.950   1.477
 1604SOL  HW2   4812   2.854   2.026   1.338
 1605SOL  OW    4813   2.924   2.035   1.687
 1605SOL  HW1   4814   2.932   1.951   1.740
 1605SOL  HW2   4815   3.015   2.067   1.660
 1606SOL  OW    4816   2.884   1.979   2.000
 1606SOL  HW1   4817   2.873   2.076   1.979
 1606SOL  HW2   4818   2.796   1.932   1.992
 1607SOL  OW    4819   2.926   2.004   2.325
 1607SOL  HW1   4820   3.016   2.046   2.312
 1607SOL  HW2   4821   2.914   1.931   2.258
 1608SOL  OW    4822   2.905   2.013   2.632
 1608SOL  HW1   4823   2.883   1.918   2.612
 1608SOL  HW2   4824   2.823   2.060   2.665
 1609SOL  OW    4825   2.916   1.992   2.897
 1609SOL  HW1   4826   2.865   2.074   2.925
 1609SOL  HW2   4827   2.870   1.911   2.932
 1610SOL  OW    4828   2.916   2.023   3.263
 1610SOL  HW1   4829   2.821   1.997   3.277
 1610SOL  HW2   4830   2.962   2.027   3.352
 1611SOL  OW    4831   2.931   1.984   3.553
 1611SOL  HW1   4832   3.001   1.990   3.624
 1611SOL  HW2   4833   2.928   1.891   3.517
 1612SOL  OW    4834   2.942   1.987   3.872
 1612SOL  HW1   4835   3.016   1.935   3.830
 1612SOL  HW2   4836   2.918   1.944   3.959
 1613SOL  OW    4837   2.889   2.269   0.124
 1613SOL  HW1   4838   2.910   2.329   0.047
 1613SOL  HW2   4839   2.919   2.176   0.102
 1614SOL  OW    4840   2.896   2.338   0.456
 1614SOL  HW1   4841   2.846   2.363   0.372
 1614SOL  HW2   4842   2.976   2.284   0.431
 1615SOL  OW    4843   2.905   2.302   0.761
 1615SOL  HW1   4844   2.812   2.333   0.742
 1615SOL  HW2   4845   2.904   2.204   0.783
 1616SOL  OW    4846   2.907   2.279   1.089
 1616SOL  HW1   4847   2.911   2.284   0.990
 1616SOL  HW2   4848   2.987   2.324   1.129
 1617SOL  OW    4849   2.894   2.330   1.361
 1617SOL  HW1   4850   2.820   2.291   1.416
 1617SOL  HW2   4851   2.881   2.305   1.265
 1618SOL  OW    4852   2.942   2.332   1.662
 1618SOL  HW1   4853   3.040   2.327   1.646
 1618SOL  HW2   4854   2.893   2.343   1.575
 1619SOL  OW    4855   2.890   2.344   1.997
 1619SOL  HW1   4856   2.887   2.343   2.097
 1619SOL  HW2   4857   2.908   2.251   1.964
 1620SOL  OW    4858   2.933   2.270   2.290
 1620SOL  HW1   4859   2.859   2.253   2.226
 1620SOL  HW2   4860   2.901   2.328   2.364
 1621SOL  OW    4861   2.924   2.339   2.597
 1621SOL  HW1   4862   2.974   2.256   2.623
 1621SOL  HW2   4863   2.845   2.313   2.540
 1622SOL  OW    4864   2.945   2.321   2.892
 1622SOL  HW1   4865   2.851   2.307   2.860
 1622SOL  HW2   4866   3.005   2.334   2.814
 1623SOL  OW    4867   2.907   2.287   3.226
 1623SOL  HW1   4868   2.994   2.283   3.274
 1623SOL  HW2   4869   2.842   2.225   3.271
 1624SOL  OW    4870   2.934   2.302   3.518
 1624SOL  HW1   4871   2.983   2.347   3.443
 1624SOL  HW2   4872   2.890   2.372   3.575
 1625SOL  OW    4873   2.939   2.314   3.848
 1625SOL  HW1   4874   3.037   2.331   3.837
 1625SOL  HW2   4875   2.915   2.317   3.945
 1626SOL  OW    4876   2.927   2.593   0.168
 1626SOL  HW1   4877   2.912   2.638   0.080
 1626SOL  HW2   4878   2.989   2.649   0.224
 1627SOL  OW    4879   2.914   2.604   0.434
 1627SOL  HW1   4880   2.842   2.646   0.489
 1627SOL  HW2   4881   2.873   2.558   0.355
 1628SOL  OW    4882   2.931   2.624   0.756
 1628SOL  HW1   4883   3.019   2.590   0.723
 1628SOL  HW2   4884   2.858   2.596   0.693
 1629SOL  OW    4885   2.952   2.643   1.046
 1629SOL  HW1   4886   3.002   2.654   0.960
 1629SOL  HW2   4887   2.915   2.550   1.052
 1630SOL  OW    4888   2.939   2.607   1.425
 1630SOL  HW1   4889   2.844   2.638   1.423
 1630SOL  HW2   4890   2.954   2.551   1.506
 1631SOL  OW    4891   2.901   2.598   1.688
 1631SOL  HW1   4892   2.934   2.602   1.593
 1631SOL  HW2   4893   2.815   2.648   1.695
 1632SOL  OW    4894   2.905   2.631   1.998
 1632SOL  HW1   4895   2.947   2.719   1.978
 1632SOL  HW2   4896   2.975   2.564   2.024
 1633SOL  OW    4897   2.901   2.616   2.339
 1633SOL  HW1   4898   2.892   2.617   2.239
 1633SOL  HW2   4899   2.838   2.548   2.377
 1634SOL  OW    4900   2.946   2.615   2.598
 1634SOL  HW1   4901   3.030   2.639   2.548
 1634SOL  HW2   4902   2.886   2.562   2.539
 1635SOL  OW    4903   2.897   2.646   2.940
 1635SOL  HW1   4904   2.897   2.585   3.019
 1635SOL  HW2   4905   2.991   2.655   2.905
 1636SOL  OW    4906   2.929   2.646   3.201
 1636SOL  HW1   4907   2.852   2.609   3.253
 1636SOL  HW2   4908   3.008   2.658   3.261
 1637SOL  OW    4909   2.938   2.593   3.508
 1637SOL  HW1   4910   3.037   2.588   3.500
 1637SOL  HW2   4911   2.909   2.688   3.520
 1638SOL  OW    4912   2.920   2.606   3.881
 1638SOL  HW1   4913   2.873   2.685   3.842
 1638SOL  HW2   4914   2.989   2.638   3.947
 1639SOL  OW    4915   2.909   2.948   0.174
 1639SOL  HW1   4916   2.938   3.044   0.174
 1639SOL  HW2   4917   2.990   2.889   0.170
 1640SOL  OW    4918   2.937   2.957   0.454
 1640SOL  HW1   4919   2.864   2.911   0.506
 1640SOL  HW2   4920   2.927   2.934   0.357
 1641SOL  OW    4921   2.914   2.896   0.751
 1641SOL  HW1   4922   2.972   2.848   0.817
 1641SOL  HW2   4923   2.855   2.830   0.705
 1642SOL  OW    4924   2.953   2.921   1.064
 1642SOL  HW1   4925   2.998   3.007   1.040
 1642SOL  HW2   4926   3.018   2.846   1.054
 1643SOL  OW    4927   2.900   2.922   1.402
 1643SOL  HW1   4928   2.980   2.918   1.342
 1643SOL  HW2   4929   2.862   3.014   1.400
 1644SOL  OW    4930   2.906   2.944   1.703
 1644SOL  HW1   4931   2.846   2.949   1.623
 1644SOL  HW2   4932   2.996   2.982   1.680
 1645SOL  OW    4933   2.946   2.903   2.010
 1645SOL  HW1   4934   2.977   2.808   2.009
 1645SOL  HW2   4935   2.922   2.929   2.104
 1646SOL  OW    4936   2.895   2.912   2.326
 1646SOL  HW1   4937   2.945   2.839   2.279
 1646SOL  HW2   4938   2.893   2.894   2.424
 1647SOL  OW    4939   2.934   2.898   2.644
 1647SOL  HW1   4940   2.840   2.894   2.678
 1647SOL  HW2   4941   2.959   2.993   2.628
 1648SOL  OW    4942   2.887   2.931   2.962
 1648SOL  HW1   4943   2.958   2.928   3.033
 1648SOL  HW2   4944   2.855   2.838   2.943
 1649SOL  OW    4945   2.926   2.947   3.238
 1649SOL  HW1   4946   2.986   2.986   3.308
 1649SOL  HW2   4947   2.981   2.902   3.168
 1650SOL  OW    4948   2.946   2.936   3.554
 1650SOL  HW1   4949   2.872   2.871   3.535
 1650SOL  HW2   4950   2.931   2.978   3.643
 1651SOL  OW    4951   2.901   2.942   3.825
 1651SOL  HW1   4952   2.960   2.912   3.751
 1651SOL  HW2   4953   2.877   2.865   3.883
 1652SOL  OW    4954   2.962   3.209   0.133
 1652SOL  HW1   4955   3.060   3.202   0.115
 1652SOL  HW2   4956   2.944   3.285   0.195
 1653SOL  OW    4957   2.952   3.210   0.450
 1653SOL  HW1   4958   2.996   3.184   0.365
 1653SOL  HW2   4959   2.992   3.295   0.484
 1654SOL  OW    4960   2.940   3.203   0.742
 1654SOL  HW1   4961   2.942   3.105   0.757
 1654SOL  HW2   4962   2.998   3.249   0.810
 1655SOL  OW    4963   2.922   3.210   1.056
 1655SOL  HW1   4964   2.890   3.133   1.111
 1655SOL  HW2   4965   3.022   3.207   1.048
 1656SOL  OW    4966   2.884   3.220   1.370
 1656SOL  HW1   4967   2.972   3.178   1.392
 1656SOL  HW2   4968   2.839   3.250   1.454
 1657SOL  OW    4969   2.886   3.240   1.702
 1657SOL  HW1   4970   2.920   3.331   1.727
 1657SOL  HW2   4971   2.806   3.219   1.759
 1658SOL  OW    4972   2.889   3.216   2.030
 1658SOL  HW1   4973   2.877   3.314   2.047
 1658SOL  HW2   4974   2.933   3.203   1.941
 1659SOL  OW    4975   2.930   3.224   2.305
 1659SOL  HW1   4976   2.958   3.266   2.219
 1659SOL  HW2   4977   2.949   3.286   2.381
 1660SOL  OW    4978   2.900   3.256   2.649
 1660SOL  HW1   4979   2.887   3.335   2.590
 1660SOL  HW2   4980   2.953   3.282   2.729
 1661SOL  OW    4981   2.956   3.209   2.908
 1661SOL  HW1   4982   3.021   3.169   2.843
 1661SOL  HW2   4983   2.886   3.141   2.932
 1662SOL  OW    4984   2.896   3.215   3.217
 1662SOL  HW1   4985   2.797   3.223   3.203
 1662SOL  HW2   4986   2.940   3.188   3.132
 1663SOL  OW    4987   2.934   3.206   3.572
 1663SOL  HW1   4988   2.981   3.118   3.565
 1663SOL  HW2   4989   2.993   3.272   3.617
 1664SOL  OW    4990   2.891   3.191   3.875
 1664SOL  HW1   4991   2.932   3.202   3.965
 1664SOL  HW2   4992   2.853   3.279   3.845
 1665SOL  OW    4993   2.939   3.527   0.161
 1665SOL  HW1   4994   2.913   3.618   0.194
 1665SOL  HW2   4995   3.018   3.494   0.213
 1666SOL  OW    4996   2.901   3.512   0.459
 1666SOL  HW1   4997   2.835   3.438   0.470
 1666SOL  HW2   4998   2.873   3.570   0.383
 1667SOL  OW    4999   2.911   3.548   0.747
 1667SOL  HW1   5000   2.980   3.537   0.818
 1667SOL  HW2   5001   2.953   3.530   0.657
 1668SOL  OW    5002   2.936   3.560   1.050
 1668SOL  HW1   5003   2.855   3.568   1.108
 1668SOL  HW2   5004   2.954   3.463   1.032
 1669SOL  OW    5005   2.887   3.534   1.407
 1669SOL  HW1   5006   2.957   3.463   1.405
 1669SOL  HW2   5007   2.927   3.621   1.381
 1670SOL  OW    5008   2.935   3.555   1.685
 1670SOL  HW1   5009   2.945   3.503   1.599
 1670SOL  HW2   5010   2.861   3.621   1.675
 1671SOL  OW    5011   2.902   3.541   1.976
 1671SOL  HW1   5012   2.994   3.565   1.946
 1671SOL  HW2   5013   2.883   3.446   1.952
 1672SOL  OW    5014   2.941   3.514   2.291
 1672SOL  HW1   5015   2.908   3.471   2.207
 1672SOL  HW2   5016   3.039   3.532   2.283
 1673SOL  OW    5017   2.924   3.537   2.623
 1673SOL  HW1   5018   2.881   3.616   2.577
 1673SOL  HW2   5019   3.007   3.511   2.575
 1674SOL  OW    5020   2.918   3.572   2.950
 1674SOL  HW1   5021   2.952   3.529   3.034
 1674SOL  HW2   5022   2.939   3.513   2.872
 1675SOL  OW    5023   2.953   3.549   3.242
 1675SOL  HW1   5024   2.968   3.500   3.328
 1675SOL  HW2   5025   2.860   3.583   3.238
 1676SOL  OW    5026   2.932   3.533   3.524
 1676SOL  HW1   5027   3.024   3.568   3.540
 1676SOL  HW2   5028   2.909   3.541   3.427
 1677SOL  OW    5029   2.930   3.501   3.807
 1677SOL  HW1   5030   2.936   3.454   3.895
 1677SOL  HW2   5031   3.019   3.541   3.785
 1678SOL  OW    5032   2.951   3.810   0.156
 1678SOL  HW1   5033   2.918   3.890   0.107
 1678SOL  HW2   5034   2.988   3.837   0.245
 1679SOL  OW    5035   2.932   3.822   0.493
 1679SOL  HW1   5036   2.945   3.912   0.451
 1679SOL  HW2   5037   3.008   3.762   0.469
 1680SOL  OW    5038   2.898   3.877   0.790
 1680SOL  HW1   5039   2.985   3.878   0.741
 1680SOL  HW2   5040   2.909   3.922   0.879
 1681SOL  OW    5041   2.902   3.818   1.062
 1681SOL  HW1   5042   2.844   3.896   1.084
 1681SOL  HW2   5043   2.952   3.837   0.978
 1682SOL  OW    5044   2.915   3.826   1.425
 1682SOL  HW1   5045   2.908   3.886   1.345
 1682SOL  HW2   5046   2.931   3.881   1.507
 1683SOL  OW    5047   2.901   3.873   1.665
 1683SOL  HW1   5048   2.838   3.806   1.704
 1683SOL  HW2   5049   2.902   3.955   1.721
 1684SOL  OW    5050   2.961   3.824   1.994
 1684SOL  HW1   5051   2.902   3.901   1.969
 1684SOL  HW2   5052   2.960   3.756   1.920
 1685SOL  OW    5053   2.928   3.816   2.333
 1685SOL  HW1   5054   2.874   3.828   2.416
 1685SOL  HW2   5055   2.910   3.892   2.270
 1686SOL  OW    5056   2.905   3.850   2.619
 1686SOL  HW1   5057   2.905   3.937   2.668
 1686SOL  HW2   5058   2.850   3.858   2.536
 1687SOL  OW    5059   2.931   3.811   2.897
 1687SOL  HW1   5060   2.843   3.852   2.874
 1687SOL  HW2   5061   2.921   3.711   2.901
 1688SOL  OW    5062   2.896   3.830   3.202
 1688SOL  HW1   5063   2.860   3.867   3.288
 1688SOL  HW2   5064   2.887   3.900   3.131
 1689SOL  OW    5065   2.957   3.847   3.548
 1689SOL  HW1   5066   2.975   3.900   3.466
 1689SOL  HW2   5067   2.875   3.883   3.593
 1690SOL  OW    5068   2.912   3.828   3.846
 1690SOL  HW1   5069   2.989   3.783   3.891
 1690SOL  HW2   5070   2.848   3.863   3.916
 1691SOL  OW    5071   3.214   0.141   0.150
 1691SOL  HW1   5072   3.305   0.175   0.176
 1691SOL  HW2   5073   3.176   0.200   0.079
 1692SOL  OW    5074   3.231   0.193   0.439
 1692SOL  HW1   5075   3.158   0.231   0.383
 1692SOL  HW2   5076   3.197   0.174   0.531
 1693SOL  OW    5077   3.230   0.126   0.757
 1693SOL  HW1   5078   3.167   0.112   0.681
 1693SOL  HW2   5079   3.219   0.052   0.823
 1694SOL  OW    5080   3.248   0.128   1.083
 1694SOL  HW1   5081   3.342   0.147   1.112
 1694SOL  HW2   5082   3.194   0.212   1.087
 1695SOL  OW    5083   3.224   0.118   1.419
 1695SOL  HW1   5084   3.141   0.086   1.374
 1695SOL  HW2   5085   3.291   0.147   1.351
 1696SOL  OW    5086   3.224   0.177   1.686
 1696SOL  HW1   5087   3.276   0.107   1.735
 1696SOL  HW2   5088   3.222   0.261   1.739
 1697SOL  OW    5089   3.266   0.137   1.993
 1697SOL  HW1   5090   3.363   0.119   2.006
 1697SOL  HW2   5091   3.254   0.230   1.958
 1698SOL  OW    5092   3.251   0.141   2.297
 1698SOL  HW1   5093   3.220   0.051   2.324
 1698SOL  HW2   5094   3.251   0.202   2.376
 1699SOL  OW    5095   3.270   0.158   2.631
 1699SOL  HW1   5096   3.186   0.115   2.661
 1699SOL  HW2   5097   3.278   0.152   2.531
 1700SOL  OW    5098   3.242   0.180   2.952
 1700SOL  HW1   5099   3.205   0.192   3.044
 1700SOL  HW2   5100   3.217   0.259   2.896
 1701SOL  OW    5101   3.236   0.137   3.193
 1701SOL  HW1   5102   3.141   0.146   3.223
 1701SOL  HW2   5103   3.238   0.131   3.093
 1702SOL  OW    5104   3.240   0.180   3.535
 1702SOL  HW1   5105   3.335   0.205   3.516
 1702SOL  HW2   5106   3.223   0.183   3.633
 1703SOL  OW    5107   3.204   0.137   3.847
 1703SOL  HW1   5108   3.155   0.222   3.826
 1703SOL  HW2   5109   3.236   0.139   3.942
 1704SOL  OW    5110   3.258   0.435   0.163
 1704SOL  HW1   5111   3.243   0.452   0.260
 1704SOL  HW2   5112   3.333   0.492   0.130
 1705SOL  OW    5113   3.251   0.496   0.431
 1705SOL  HW1   5114   3.323   0.563   0.410
 1705SOL  HW2   5115   3.178   0.505   0.363
 1706SOL  OW    5116   3.265   0.470   0.791
 1706SOL  HW1   5117   3.338   0.527   0.752
 1706SOL  HW2   5118   3.184   0.475   0.732
 1707SOL  OW    5119   3.195   0.462   1.087
 1707SOL  HW1   5120   3.110   0.428   1.127
 1707SOL  HW2   5121   3.189   0.561   1.073
 1708SOL  OW    5122   3.215   0.456   1.389
 1708SOL  HW1   5123   3.272   0.453   1.307
 1708SOL  HW2   5124   3.221   0.368   1.437
 1709SOL  OW    5125   3.235   0.425   1.687
 1709SOL  HW1   5126   3.207   0.421   1.591
 1709SOL  HW2   5127   3.185   0.356   1.740
 1710SOL  OW    5128   3.208   0.495   2.038
 1710SOL  HW1   5129   3.162   0.437   2.106
 1710SOL  HW2   5130   3.240   0.579   2.082
 1711SOL  OW    5131   3.215   0.436   2.285
 1711SOL  HW1   5132   3.230   0.485   2.371
 1711SOL  HW2   5133   3.166   0.495   2.221
 1712SOL  OW    5134   3.229   0.491   2.615
 1712SOL  HW1   5135   3.168   0.424   2.574
 1712SOL  HW2   5136   3.305   0.510   2.553
 1713SOL  OW    5137   3.195   0.425   2.901
 1713SOL  HW1   5138   3.161   0.401   2.992
 1713SOL  HW2   5139   3.130   0.486   2.856
 1714SOL  OW    5140   3.258   0.471   3.236
 1714SOL  HW1   5141   3.268   0.377   3.204
 1714SOL  HW2   5142   3.161   0.495   3.239
 1715SOL  OW    5143   3.216   0.496   3.525
 1715SOL  HW1   5144   3.316   0.489   3.531
 1715SOL  HW2   5145   3.174   0.440   3.597
 1716SOL  OW    5146   3.258   0.493   3.845
 1716SOL  HW1   5147   3.228   0.537   3.930
 1716SOL  HW2   5148   3.205   0.409   3.831
 1717SOL  OW    5149   3.262   0.751   0.167
 1717SOL  HW1   5150   3.229   0.834   0.213
 1717SOL  HW2   5151   3.184   0.695   0.139
 1718SOL  OW    5152   3.198   0.767   0.439
 1718SOL  HW1   5153   3.125   0.700   0.453
 1718SOL  HW2   5154   3.266   0.729   0.376
 1719SOL  OW    5155   3.196   0.730   0.755
 1719SOL  HW1   5156   3.188   0.637   0.791
 1719SOL  HW2   5157   3.144   0.737   0.670
 1720SOL  OW    5158   3.238   0.766   1.061
 1720SOL  HW1   5159   3.295   0.844   1.037
 1720SOL  HW2   5160   3.273   0.723   1.145
 1721SOL  OW    5161   3.270   0.804   1.355
 1721SOL  HW1   5162   3.256   0.707   1.336
 1721SOL  HW2   5163   3.358   0.817   1.401
 1722SOL  OW    5164   3.224   0.781   1.711
 1722SOL  HW1   5165   3.132   0.742   1.711
 1722SOL  HW2   5166   3.221   0.873   1.750
 1723SOL  OW    5167   3.220   0.789   1.970
 1723SOL  HW1   5168   3.291   0.751   1.910
 1723SOL  HW2   5169   3.236   0.887   1.983
 1724SOL  OW    5170   3.217   0.787   2.318
 1724SOL  HW1   5171   3.176   0.872   2.349
 1724SOL  HW2   5172   3.308   0.805   2.280
 1725SOL  OW    5173   3.258   0.733   2.589
 1725SOL  HW1   5174   3.301   0.793   2.656
 1725SOL  HW2   5175   3.260   0.639   2.623
 1726SOL  OW    5176   3.195   0.745   2.883
 1726SOL  HW1   5177   3.101   0.740   2.918
 1726SOL  HW2   5178   3.235   0.833   2.908
 1727SOL  OW    5179   3.231   0.771   3.243
 1727SOL  HW1   5180   3.272   0.682   3.226
 1727SOL  HW2   5181   3.301   0.842   3.233
 1728SOL  OW    5182   3.222   0.729   3.552
 1728SOL  HW1   5183   3.241   0.757   3.647
 1728SOL  HW2   5184   3.295   0.762   3.492
 1729SOL  OW    5185   3.195   0.799   3.808
 1729SOL  HW1   5186   3.161   0.720   3.756
 1729SOL  HW2   5187   3.231   0.868   3.745
 1730SOL  OW    5188   3.233   1.109   0.160
 1730SOL  HW1   5189   3.187   1.172   0.221
 1730SOL  HW2   5190   3.319   1.078   0.201
 1731SOL  OW    5191   3.239   1.091   0.431
 1731SOL  HW1   5192   3.252   1.164   0.364
 1731SOL  HW2   5193   3.206   1.131   0.517
 1732SOL  OW    5194   3.245   1.107   0.807
 1732SOL  HW1   5195   3.318   1.118   0.740
 1732SOL  HW2   5196   3.156   1.110   0.761
 1733SOL  OW    5197   3.226   1.064   1.097
 1733SOL  HW1   5198   3.219   1.095   1.192
 1733SOL  HW2   5199   3.320   1.076   1.065
 1734SOL  OW    5200   3.234   1.058   1.358
 1734SOL  HW1   5201   3.173   1.119   1.308
 1734SOL  HW2   5202   3.186   1.020   1.437
 1735SOL  OW    5203   3.204   1.074   1.666
 1735SOL  HW1   5204   3.275   1.031   1.609
 1735SOL  HW2   5205   3.231   1.068   1.762
 1736SOL  OW    5206   3.192   1.041   2.034
 1736SOL  HW1   5207   3.157   1.121   2.083
 1736SOL  HW2   5208   3.235   1.070   1.949
 1737SOL  OW    5209   3.197   1.043   2.304
 1737SOL  HW1   5210   3.239   0.983   2.372
 1737SOL  HW2   5211   3.250   1.127   2.297
 1738SOL  OW    5212   3.210   1.114   2.648
 1738SOL  HW1   5213   3.140   1.175   2.612
 1738SOL  HW2   5214   3.184   1.083   2.740
 1739SOL  OW    5215   3.223   1.073   2.913
 1739SOL  HW1   5216   3.209   1.172   2.917
 1739SOL  HW2   5217   3.138   1.026   2.935
 1740SOL  OW    5218   3.194   1.060   3.201
 1740SOL  HW1   5219   3.271   1.118   3.227
 1740SOL  HW2   5220   3.196   0.975   3.253
 1741SOL  OW    5221   3.199   1.082   3.506
 1741SOL  HW1   5222   3.125   1.128   3.556
 1741SOL  HW2   5223   3.285   1.092   3.557
 1742SOL  OW    5224   3.199   1.075   3.842
 1742SOL  HW1   5225   3.256   1.151   3.810
 1742SOL  HW2   5226   3.151   1.102   3.925
 1743SOL  OW    5227   3.202   1.345   0.129
 1743SOL  HW1   5228   3.241   1.263   0.087
 1743SOL  HW2   5229   3.211   1.423   0.067
 1744SOL  OW    5230   3.210   1.409   0.495
 1744SOL  HW1   5231   3.188   1.386   0.400
 1744SOL  HW2   5232   3.126   1.407   0.549
 1745SOL  OW    5233   3.223   1.377   0.786
 1745SOL  HW1   5234   3.215   1.404   0.882
 1745SOL  HW2   5235   3.143   1.409   0.736
 1746SOL  OW    5236   3.241   1.359   1.046
 1746SOL  HW1   5237   3.257   1.454   1.072
 1746SOL  HW2   5238   3.241   1.352   0.946
 1747SOL  OW    5239   3.226   1.390   1.356
 1747SOL  HW1   5240   3.295   1.318   1.365
 1747SOL  HW2   5241   3.198   1.397   1.260
 1748SOL  OW    5242   3.214   1.369   1.673
 1748SOL  HW1   5243   3.190   1.432   1.747
 1748SOL  HW2   5244   3.184   1.407   1.586
 1749SOL  OW    5245   3.228   1.397   2.001
 1749SOL  HW1   5246   3.228   1.303   1.966
 1749SOL  HW2   5247   3.138   1.416   2.042
 1750SOL  OW    5248   3.207   1.353   2.333
 1750SOL  HW1   5249   3.181   1.283   2.267
 1750SOL  HW2   5250   3.212   1.442   2.288
 1751SOL  OW    5251   3.229   1.350   2.596
 1751SOL  HW1   5252   3.132   1.374   2.595
 1751SOL  HW2   5253   3.239   1.256   2.629
 1752SOL  OW    5254   3.255   1.405   2.953
 1752SOL  HW1   5255   3.262   1.460   2.870
 1752SOL  HW2   5256   3.282   1.460   3.032
 1753SOL  OW    5257   3.239   1.378   3.225
 1753SOL  HW1   5258   3.158   1.435   3.210
 1753SOL  HW2   5259   3.313   1.410   3.165
 1754SOL  OW    5260   3.206   1.397   3.545
 1754SOL  HW1   5261   3.225   1.301   3.569
 1754SOL  HW2   5262   3.259   1.422   3.464
 1755SOL  OW    5263   3.203   1.415   3.836
 1755SOL  HW1   5264   3.121   1.369   3.869
 1755SOL  HW2   5265   3.223   1.386   3.742
 1756SOL  OW    5266   3.195   1.679   0.183
 1756SOL  HW1   5267   3.246   1.608   0.134
 1756SOL  HW2   5268   3.257   1.729   0.243
 1757SOL  OW    5269   3.264   1.692   0.498
 1757SOL  HW1   5270   3.179   1.701   0.549
 1757SOL  HW2   5271   3.340   1.730   0.551
 1758SOL  OW    5272   3.261   1.718   0.798
 1758SOL  HW1   5273   3.225   1.760   0.881
 1758SOL  HW2   5274   3.218   1.629   0.785
 1759SOL  OW    5275   3.221   1.713   1.083
 1759SOL  HW1   5276   3.191   1.732   0.990
 1759SOL  HW2   5277   3.199   1.790   1.142
 1760SOL  OW    5278   3.248   1.667   1.403
 1760SOL  HW1   5279   3.337   1.709   1.387
 1760SOL  HW2   5280   3.243   1.579   1.354
 1761SOL  OW    5281   3.267   1.677   1.731
 1761SOL  HW1   5282   3.171   1.666   1.755
 1761SOL  HW2   5283   3.296   1.770   1.751
 1762SOL  OW    5284   3.221   1.668   1.969
 1762SOL  HW1   5285   3.197   1.703   1.878
 1762SOL  HW2   5286   3.237   1.745   2.031
 1763SOL  OW    5287   3.254   1.697   2.292
 1763SOL  HW1   5288   3.190   1.707   2.216
 1763SOL  HW2   5289   3.329   1.638   2.264
 1764SOL  OW    5290   3.239   1.679   2.611
 1764SOL  HW1   5291   3.257   1.777   2.616
 1764SOL  HW2   5292   3.175   1.653   2.683
 1765SOL  OW    5293   3.260   1.706   2.944
 1765SOL  HW1   5294   3.175   1.658   2.968
 1765SOL  HW2   5295   3.311   1.652   2.877
 1766SOL  OW    5296   3.237   1.732   3.210
 1766SOL  HW1   5297   3.264   1.754   3.116
 1766SOL  HW2   5298   3.201   1.639   3.213
 1767SOL  OW    5299   3.212   1.660   3.543
 1767SOL  HW1   5300   3.263   1.604   3.608
 1767SOL  HW2   5301   3.169   1.601   3.474
 1768SOL  OW    5302   3.240   1.710   3.833
 1768SOL  HW1   5303   3.154   1.693   3.881
 1768SOL  HW2   5304   3.272   1.803   3.854
 1769SOL  OW    5305   3.192   2.011   0.194
 1769SOL  HW1   5306   3.259   1.967   0.253
 1769SOL  HW2   5307   3.218   1.998   0.098
 1770SOL  OW    5308   3.214   1.975   0.444
 1770SOL  HW1   5309   3.153   2.005   0.517
 1770SOL  HW2   5310   3.309   1.982   0.475
 1771SOL  OW    5311   3.225   1.980   0.757
 1771SOL  HW1   5312   3.268   2.030   0.832
 1771SOL  HW2   5313   3.235   2.032   0.672
 1772SOL  OW    5314   3.242   1.988   1.069
 1772SOL  HW1   5315   3.327   1.942   1.044
 1772SOL  HW2   5316   3.259   2.052   1.143
 1773SOL  OW    5317   3.194   2.033   1.377
 1773SOL  HW1   5318   3.126   2.074   1.316
 1773SOL  HW2   5319   3.157   1.949   1.416
 1774SOL  OW    5320   3.217   1.967   1.703
 1774SOL  HW1   5321   3.231   1.869   1.716
 1774SOL  HW2   5322   3.153   2.001   1.772
 1775SOL  OW    5323   3.260   1.963   1.972
 1775SOL  HW1   5324   3.342   2.006   2.010
 1775SOL  HW2   5325   3.206   1.923   2.046
 1776SOL  OW    5326   3.202   2.008   2.341
 1776SOL  HW1   5327   3.170   1.914   2.353
 1776SOL  HW2   5328   3.130   2.072   2.369
 1777SOL  OW    5329   3.226   1.988   2.637
 1777SOL  HW1   5330   3.281   2.060   2.597
 1777SOL  HW2   5331   3.206   2.009   2.732
 1778SOL  OW    5332   3.250   1.980   2.896
 1778SOL  HW1   5333   3.235   1.952   2.991
 1778SOL  HW2   5334   3.166   2.019   2.859
 1779SOL  OW    5335   3.219   2.022   3.246
 1779SOL  HW1   5336   3.252   2.044   3.154
 1779SOL  HW2   5337   3.279   2.066   3.314
 1780SOL  OW    5338   3.244   2.026   3.521
 1780SOL  HW1   5339   3.146   2.027   3.500
 1780SOL  HW2   5340   3.258   2.043   3.618
 1781SOL  OW    5341   3.218   1.963   3.876
 1781SOL  HW1   5342   3.265   1.991   3.791
 1781SOL  HW2   5343   3.126   2.002   3.877
 1782SOL  OW    5344   3.237   2.292   0.119
 1782SOL  HW1   5345   3.241   2.197   0.088
 1782SOL  HW2   5346   3.162   2.303   0.184
 1783SOL  OW    5347   3.249   2.328   0.475
 1783SOL  HW1   5348   3.235   2.295   0.381
 1783SOL  HW2   5349   3.262   2.249   0.536
 1784SOL  OW    5350   3.207   2.341   0.789
 1784SOL  HW1   5351   3.186   2.402   0.865
 1784SOL  HW2   5352   3.200   2.391   0.703
 1785SOL  OW    5353   3.243   2.320   1.109
 1785SOL  HW1   5354   3.249   2.264   1.026
 1785SOL  HW2   5355   3.327   2.373   1.120
 1786SOL  OW    5356   3.265   2.315   1.378
 1786SOL  HW1   5357   3.258   2.218   1.358
 1786SOL  HW2   5358   3.362   2.341   1.382
 1787SOL  OW    5359   3.220   2.333   1.704
 1787SOL  HW1   5360   3.298   2.323   1.765
 1787SOL  HW2   5361   3.172   2.419   1.725
 1788SOL  OW    5362   3.197   2.279   2.032
 1788SOL  HW1   5363   3.275   2.235   2.077
 1788SOL  HW2   5364   3.129   2.305   2.101
 1789SOL  OW    5365   3.262   2.344   2.302
 1789SOL  HW1   5366   3.215   2.306   2.382
 1789SOL  HW2   5367   3.224   2.434   2.281
 1790SOL  OW    5368   3.253   2.334   2.601
 1790SOL  HW1   5369   3.195   2.410   2.571
 1790SOL  HW2   5370   3.218   2.249   2.562
 1791SOL  OW    5371   3.202   2.347   2.885
 1791SOL  HW1   5372   3.211   2.346   2.985
 1791SOL  HW2   5373   3.283   2.306   2.844
 1792SOL  OW    5374   3.239   2.320   3.245
 1792SOL  HW1   5375   3.212   2.304   3.150
 1792SOL  HW2   5376   3.337   2.337   3.250
 1793SOL  OW    5377   3.211   2.325   3.516
 1793SOL  HW1   5378   3.276   2.302   3.589
 1793SOL  HW2   5379   3.258   2.381   3.447
 1794SOL  OW    5380   3.257   2.285   3.862
 1794SOL  HW1   5381   3.237   2.205   3.805
 1794SOL  HW2   5382   3.182   2.350   3.855
 1795SOL  OW    5383   3.253   2.591   0.133
 1795SOL  HW1   5384   3.341   2.638   0.137
 1795SOL  HW2   5385   3.229   2.573   0.037
 1796SOL  OW    5386   3.253   2.582   0.437
 1796SOL  HW1   5387   3.281   2.526   0.515
 1796SOL  HW2   5388   3.277   2.535   0.352
 1797SOL  OW    5389   3.227   2.650   0.774
 1797SOL  HW1   5390   3.198   2.603   0.857
 1797SOL  HW2   5391   3.181   2.610   0.695
 1798SOL  OW    5392   3.222   2.654   1.074
 1798SOL  HW1   5393   3.215   2.751   1.097
 1798SOL  HW2   5394   3.256   2.644   0.980
 1799SOL  OW    5395   3.225   2.608   1.370
 1799SOL  HW1   5396   3.306   2.667   1.371
 1799SOL  HW2   5397   3.213   2.572   1.277
 1800SOL  OW    5398   3.217   2.630   1.656
 1800SOL  HW1   5399   3.258   2.541   1.638
 1800SOL  HW2   5400   3.135   2.619   1.711
 1801SOL  OW    5401   3.245   2.591   1.991
 1801SOL  HW1   5402   3.244   2.538   2.075
 1801SOL  HW2   5403   3.328   2.648   1.988
 1802SOL  OW    5404   3.202   2.620   2.326
 1802SOL  HW1   5405   3.271   2.662   2.385
 1802SOL  HW2   5406   3.206   2.520   2.338
 1803SOL  OW    5407   3.219   2.588   2.594
 1803SOL  HW1   5408   3.314   2.620   2.588
 1803SOL  HW2   5409   3.174   2.630   2.673
 1804SOL  OW    5410   3.256   2.597   2.945
 1804SOL  HW1   5411   3.176   2.654   2.964
 1804SOL  HW2   5412   3.323   2.649   2.893
 1805SOL  OW    5413   3.217   2.590   3.249
 1805SOL  HW1   5414   3.209   2.494   3.273
 1805SOL  HW2   5415   3.221   2.600   3.149
 1806SOL  OW    5416   3.228   2.578   3.575
 1806SOL  HW1   5417   3.328   2.576   3.575
 1806SOL  HW2   5418   3.195   2.574   3.669
 1807SOL  OW    5419   3.203   2.604   3.837
 1807SOL  HW1   5420   3.128   2.624   3.900
 1807SOL  HW2   5421   3.290   2.630   3.879
 1808SOL  OW    5422   3.230   2.946   0.114
 1808SOL  HW1   5423   3.135   2.928   0.088
 1808SOL  HW2   5424   3.291   2.921   0.039
 1809SOL  OW    5425   3.265   2.935   0.498
 1809SOL  HW1   5426   3.347   2.915   0.553
 1809SOL  HW2   5427   3.187   2.947   0.558
 1810SOL  OW    5428   3.256   2.957   0.777
 1810SOL  HW1   5429   3.221   3.044   0.811
 1810SOL  HW2   5430   3.243   2.952   0.678
 1811SOL  OW    5431   3.219   2.919   1.090
 1811SOL  HW1   5432   3.161   2.999   1.079
 1811SOL  HW2   5433   3.312   2.941   1.059
 1812SOL  OW    5434   3.225   2.942   1.352
 1812SOL  HW1   5435   3.132   2.923   1.320
 1812SOL  HW2   5436   3.224   3.023   1.410
 1813SOL  OW    5437   3.257   2.899   1.728
 1813SOL  HW1   5438   3.345   2.940   1.704
 1813SOL  HW2   5439   3.185   2.967   1.716
 1814SOL  OW    5440   3.203   2.893   2.025
 1814SOL  HW1   5441   3.278   2.877   1.961
 1814SOL  HW2   5442   3.233   2.872   2.118
 1815SOL  OW    5443   3.256   2.942   2.345
 1815SOL  HW1   5444   3.314   2.969   2.267
 1815SOL  HW2   5445   3.287   2.854   2.380
 1816SOL  OW    5446   3.212   2.949   2.604
 1816SOL  HW1   5447   3.224   3.012   2.527
 1816SOL  HW2   5448   3.197   3.001   2.687
 1817SOL  OW    5449   3.234   2.919   2.884
 1817SOL  HW1   5450   3.227   2.873   2.795
 1817SOL  HW2   5451   3.213   3.016   2.873
 1818SOL  OW    5452   3.237   2.943   3.205
 1818SOL  HW1   5453   3.253   2.848   3.178
 1818SOL  HW2   5454   3.196   2.992   3.128
 1819SOL  OW    5455   3.265   2.926   3.513
 1819SOL  HW1   5456   3.240   2.997   3.579
 1819SOL  HW2   5457   3.182   2.888   3.471
 1820SOL  OW    5458   3.242   2.898   3.811
 1820SOL  HW1   5459   3.308   2.970   3.833
 1820SOL  HW2   5460   3.151   2.929   3.837
 1821SOL  OW    5461   3.246   3.200   0.122
 1821SOL  HW1   5462   3.242   3.104   0.092
 1821SOL  HW2   5463   3.300   3.253   0.057
 1822SOL  OW    5464   3.250   3.195   0.486
 1822SOL  HW1   5465   3.181   3.175   0.556
 1822SOL  HW2   5466   3.265   3.114   0.430
 1823SOL  OW    5467   3.254   3.202   0.771
 1823SOL  HW1   5468   3.156   3.200   0.753
 1823SOL  HW2   5469   3.292   3.110   0.762
 1824SOL  OW    5470   3.198   3.241   1.042
 1824SOL  HW1   5471   3.238   3.159   1.001
 1824SOL  HW2   5472   3.226   3.248   1.138
 1825SOL  OW    5473   3.266   3.207   1.399
 1825SOL  HW1   5474   3.183   3.262   1.409
 1825SOL  HW2   5475   3.246   3.123   1.349
 1826SOL  OW    5476   3.201   3.208   1.688
 1826SOL  HW1   5477   3.220   3.277   1.758
 1826SOL  HW2   5478   3.219   3.117   1.726
 1827SOL  OW    5479   3.237   3.271   1.962
 1827SOL  HW1   5480   3.190   3.249   2.048
 1827SOL  HW2   5481   3.198   3.355   1.923
 1828SOL  OW    5482   3.191   3.219   2.297
 1828SOL  HW1   5483   3.240   3.160   2.233
 1828SOL  HW2   5484   3.177   3.309   2.256
 1829SOL  OW    5485   3.261   3.264   2.646
 1829SOL  HW1   5486   3.341   3.205   2.633
 1829SOL  HW2   5487   3.178   3.209   2.643
 1830SOL  OW    5488   3.202   3.224   2.943
 1830SOL  HW1   5489   3.282   3.239   2.884
 1830SOL  HW2   5490   3.203   3.130   2.976
 1831SOL  OW    5491   3.216   3.244   3.210
 1831SOL  HW1   5492   3.171   3.249   3.121
 1831SOL  HW2   5493   3.185   3.162   3.258
 1832SOL  OW    5494   3.217   3.260   3.519
 1832SOL  HW1   5495   3.121   3.236   3.499
 1832SOL  HW2   5496   3.248   3.209   3.599
 1833SOL  OW    5497   3.268   3.215   3.808
 1833SOL  HW1   5498   3.220   3.174   3.731
 1833SOL  HW2   5499   3.365   3.222   3.787
 1834SOL  OW    5500   3.211   3.512   0.154
 1834SOL  HW1   5501   3.233   3.603   0.191
 1834SOL  HW2   5502   3.189   3.520   0.057
 1835SOL  OW    5503   3.200   3.549   0.492
 1835SOL  HW1   5504   3.285   3.554   0.543
 1835SOL  HW2   5505   3.187   3.633   0.439
 1836SOL  OW    5506   3.220   3.512   0.761
 1836SOL  HW1   5507   3.172   3.540   0.678
 1836SOL  HW2   5508   3.315   3.540   0.756
 1837SOL  OW    5509   3.254   3.546   1.045
 1837SOL  HW1   5510   3.267   3.644   1.031
 1837SOL  HW2   5511   3.189   3.511   0.978
 1838SOL  OW    5512   3.234   3.536   1.371
 1838SOL  HW1   5513   3.322   3.562   1.332
 1838SOL  HW2   5514   3.202   3.608   1.433
 1839SOL  OW    5515   3.200   3.577   1.666
 1839SOL  HW1   5516   3.133   3.546   1.735
 1839SOL  HW2   5517   3.182   3.673   1.644
 1840SOL  OW    5518   3.206   3.510   2.006
 1840SOL  HW1   5519   3.268   3.449   1.956
 1840SOL  HW2   5520   3.173   3.581   1.944
 1841SOL  OW    5521   3.226   3.518   2.302
 1841SOL  HW1   5522   3.197   3.552   2.392
 1841SOL  HW2   5523   3.299   3.577   2.267
 1842SOL  OW    5524   3.245   3.521   2.649
 1842SOL  HW1   5525   3.231   3.616   2.677
 1842SOL  HW2   5526   3.180   3.498   2.575
 1843SOL  OW    5527   3.215   3.514   2.959
 1843SOL  HW1   5528   3.137   3.575   2.945
 1843SOL  HW2   5529   3.235   3.465   2.875
 1844SOL  OW    5530   3.256   3.526   3.258
 1844SOL  HW1   5531   3.248   3.557   3.353
 1844SOL  HW2   5532   3.329   3.576   3.213
 1845SOL  OW    5533   3.232   3.526   3.566
 1845SOL  HW1   5534   3.239   3.440   3.616
 1845SOL  HW2   5535   3.222   3.602   3.630
 1846SOL  OW    5536   3.251   3.522   3.855
 1846SOL  HW1   5537   3.268   3.602   3.912
 1846SOL  HW2   5538   3.337   3.476   3.835
 1847SOL  OW    5539   3.220   3.806   0.191
 1847SOL  HW1   5540   3.205   3.742   0.266
 1847SOL  HW2   5541   3.152   3.791   0.120
 1848SOL  OW    5542   3.235   3.854   0.470
 1848SOL  HW1   5543   3.281   3.942   0.457
 1848SOL  HW2   5544   3.270   3.809   0.552
 1849SOL  OW    5545   3.235   3.829   0.807
 1849SOL  HW1   5546   3.228   3.883   0.723
 1849SOL  HW2   5547   3.228   3.890   0.886
 1850SOL  OW    5548   3.241   3.860   1.073
 1850SOL  HW1   5549   3.194   3.905   1.150
 1850SOL  HW2   5550   3.200   3.770   1.058
 1851SOL  OW    5551   3.214   3.811   1.373
 1851SOL  HW1   5552   3.190   3.770   1.460
 1851SOL  HW2   5553   3.175   3.903   1.367
 1852SOL  OW    5554   3.205   3.859   1.723
 1852SOL  HW1   5555   3.300   3.865   1.692
 1852SOL  HW2   5556   3.144   3.894   1.651
 1853SOL  OW    5557   3.215   3.833   2.014
 1853SOL  HW1   5558   3.171   3.906   1.962
 1853SOL  HW2   5559   3.168   3.747   1.996
 1854SOL  OW    5560   3.203   3.881   2.297
 1854SOL  HW1   5561   3.258   3.797   2.298
 1854SOL  HW2   5562   3.163   3.896   2.388
 1855SOL  OW    5563   3.199   3.820   2.650
 1855SOL  HW1   5564   3.130   3.842   2.719
 1855SOL  HW2   5565   3.252   3.902   2.629
 1856SOL  OW    5566   3.211   3.859   2.896
 1856SOL  HW1   5567   3.221   3.794   2.971
 1856SOL  HW2   5568   3.114   3.865   2.870
 1857SOL  OW    5569   3.206   3.876   3.203
 1857SOL  HW1   5570   3.155   3.922   3.130
 1857SOL  HW2   5571   3.253   3.797   3.165
 1858SOL  OW    5572   3.192   3.846   3.567
 1858SOL  HW1   5573   3.259   3.894   3.624
 1858SOL  HW2   5574   3.217   3.749   3.561
 1859SOL  OW    5575   3.217   3.816   3.885
 1859SOL  HW1   5576   3.316   3.806   3.878
 1859SOL  HW2   5577   3.174   3.726   3.884
 1860SOL  OW    5578   3.553   0.182   0.174
 1860SOL  HW1   5579   3.624   0.112   0.178
 1860SOL  HW2   5580   3.593   0.271   0.196
 1861SOL  OW    5581   3.554   0.145   0.447
 1861SOL  HW1   5582   3.478   0.187   0.398
 1861SOL  HW2   5583   3.543   0.045   0.448
 1862SOL  OW    5584   3.556   0.171   0.805
 1862SOL  HW1   5585   3.464   0.133   0.815
 1862SOL  HW2   5586   3.614   0.106   0.757
 1863SOL  OW    5587   3.544   0.137   1.076
 1863SOL  HW1   5588   3.451   0.120   1.109
 1863SOL  HW2   5589   3.567   0.072   1.004
 1864SOL  OW    5590   3.548   0.148   1.408
 1864SOL  HW1   5591   3.586   0.240   1.416
 1864SOL  HW2   5592   3.595   0.086   1.471
 1865SOL  OW    5593   3.545   0.115   1.698
 1865SOL  HW1   5594   3.556   0.190   1.763
 1865SOL  HW2   5595   3.452   0.115   1.662
 1866SOL  OW    5596   3.549   0.187   1.993
 1866SOL  HW1   5597   3.605   0.105   2.005
 1866SOL  HW2   5598   3.500   0.182   1.906
 1867SOL  OW    5599   3.544   0.152   2.310
 1867SOL  HW1   5600   3.608   0.161   2.387
 1867SOL  HW2   5601   3.554   0.061   2.269
 1868SOL  OW    5602   3.504   0.186   2.648
 1868SOL  HW1   5603   3.543   0.121   2.714
 1868SOL  HW2   5604   3.522   0.154   2.555
 1869SOL  OW    5605   3.542   0.158   2.888
 1869SOL  HW1   5606   3.619   0.096   2.904
 1869SOL  HW2   5607   3.531   0.171   2.789
 1870SOL  OW    5608   3.546   0.148   3.247
 1870SOL  HW1   5609   3.479   0.218   3.221
 1870SOL  HW2   5610   3.591   0.175   3.333
 1871SOL  OW    5611   3.502   0.171   3.521
 1871SOL  HW1   5612   3.436   0.102   3.493
 1871SOL  HW2   5613   3.457   0.239   3.579
 1872SOL  OW    5614   3.551   0.164   3.824
 1872SOL  HW1   5615   3.614   0.216   3.881
 1872SOL  HW2   5616   3.473   0.222   3.798
 1873SOL  OW    5617   3.534   0.488   0.162
 1873SOL  HW1   5618   3.579   0.567   0.205
 1873SOL  HW2   5619   3.585   0.460   0.081
 1874SOL  OW    5620   3.504   0.457   0.446
 1874SOL  HW1   5621   3.530   0.504   0.362
 1874SOL  HW2   5622   3.428   0.395   0.428
 1875SOL  OW    5623   3.550   0.471   0.730
 1875SOL  HW1   5624   3.555   0.377   0.765
 1875SOL  HW2   5625   3.458   0.488   0.695
 1876SOL  OW    5626   3.547   0.480   1.098
 1876SOL  HW1   5627   3.497   0.563   1.073
 1876SOL  HW2   5628   3.645   0.496   1.087
 1877SOL  OW    5629   3.503   0.446   1.378
 1877SOL  HW1   5630   3.481   0.542   1.397
 1877SOL  HW2   5631   3.429   0.387   1.411
 1878SOL  OW    5632   3.513   0.455   1.658
 1878SOL  HW1   5633   3.458   0.392   1.713
 1878SOL  HW2   5634   3.467   0.544   1.654
 1879SOL  OW    5635   3.508   0.475   1.981
 1879SOL  HW1   5636   3.502   0.393   1.924
 1879SOL  HW2   5637   3.539   0.552   1.926
 1880SOL  OW    5638   3.555   0.425   2.313
 1880SOL  HW1   5639   3.458   0.443   2.325
 1880SOL  HW2   5640   3.574   0.328   2.325
 1881SOL  OW    5641   3.530   0.485   2.638
 1881SOL  HW1   5642   3.564   0.392   2.628
 1881SOL  HW2   5643   3.456   0.501   2.572
 1882SOL  OW    5644   3.529   0.471   2.901
 1882SOL  HW1   5645   3.453   0.406   2.904
 1882SOL  HW2   5646   3.570   0.477   2.992
 1883SOL  OW    5647   3.545   0.428   3.226
 1883SOL  HW1   5648   3.641   0.433   3.252
 1883SOL  HW2   5649   3.488   0.422   3.308
 1884SOL  OW    5650   3.513   0.492   3.534
 1884SOL  HW1   5651   3.511   0.585   3.496
 1884SOL  HW2   5652   3.430   0.444   3.508
 1885SOL  OW    5653   3.546   0.450   3.829
 1885SOL  HW1   5654   3.457   0.491   3.850
 1885SOL  HW2   5655   3.563   0.375   3.892
 1886SOL  OW    5656   3.515   0.802   0.178
 1886SOL  HW1   5657   3.586   0.872   0.187
 1886SOL  HW2   5658   3.428   0.838   0.214
 1887SOL  OW    5659   3.509   0.789   0.455
 1887SOL  HW1   5660   3.499   0.887   0.440
 1887SOL  HW2   5661   3.551   0.747   0.375
 1888SOL  OW    5662   3.500   0.772   0.740
 1888SOL  HW1   5663   3.462   0.692   0.693
 1888SOL  HW2   5664   3.502   0.849   0.677
 1889SOL  OW    5665   3.515   0.785   1.057
 1889SOL  HW1   5666   3.553   0.696   1.083
 1889SOL  HW2   5667   3.418   0.787   1.079
 1890SOL  OW    5668   3.570   0.782   1.411
 1890SOL  HW1   5669   3.622   0.727   1.476
 1890SOL  HW2   5670   3.608   0.874   1.407
 1891SOL  OW    5671   3.548   0.799   1.681
 1891SOL  HW1   5672   3.536   0.866   1.754
 1891SOL  HW2   5673   3.581   0.844   1.599
 1892SOL  OW    5674   3.542   0.771   2.032
 1892SOL  HW1   5675   3.525   0.856   1.984
 1892SOL  HW2   5676   3.490   0.697   1.989
 1893SOL  OW    5677   3.512   0.775   2.328
 1893SOL  HW1   5678   3.608   0.780   2.303
 1893SOL  HW2   5679   3.458   0.747   2.249
 1894SOL  OW    5680   3.528   0.799   2.605
 1894SOL  HW1   5681   3.448   0.744   2.629
 1894SOL  HW2   5682   3.544   0.794   2.507
 1895SOL  OW    5683   3.512   0.776   2.917
 1895SOL  HW1   5684   3.492   0.693   2.968
 1895SOL  HW2   5685   3.611   0.793   2.920
 1896SOL  OW    5686   3.500   0.735   3.206
 1896SOL  HW1   5687   3.404   0.707   3.210
 1896SOL  HW2   5688   3.558   0.661   3.240
 1897SOL  OW    5689   3.560   0.801   3.542
 1897SOL  HW1   5690   3.517   0.736   3.479
 1897SOL  HW2   5691   3.565   0.891   3.499
 1898SOL  OW    5692   3.507   0.772   3.875
 1898SOL  HW1   5693   3.446   0.763   3.796
 1898SOL  HW2   5694   3.540   0.682   3.901
 1899SOL  OW    5695   3.558   1.060   0.124
 1899SOL  HW1   5696   3.624   1.051   0.049
 1899SOL  HW2   5697   3.603   1.035   0.210
 1900SOL  OW    5698   3.571   1.105   0.426
 1900SOL  HW1   5699   3.533   1.088   0.335
 1900SOL  HW2   5700   3.568   1.021   0.480
 1901SOL  OW    5701   3.564   1.045   0.734
 1901SOL  HW1   5702   3.562   1.103   0.653
 1901SOL  HW2   5703   3.473   1.007   0.751
 1902SOL  OW    5704   3.559   1.080   1.070
 1902SOL  HW1   5705   3.473   1.040   1.101
 1902SOL  HW2   5706   3.564   1.175   1.101
 1903SOL  OW    5707   3.571   1.104   1.349
 1903SOL  HW1   5708   3.640   1.034   1.367
 1903SOL  HW2   5709   3.524   1.084   1.263
 1904SOL  OW    5710   3.548   1.099   1.696
 1904SOL  HW1   5711   3.624   1.118   1.635
 1904SOL  HW2   5712   3.566   1.015   1.747
 1905SOL  OW    5713   3.577   1.092   1.968
 1905SOL  HW1   5714   3.643   1.107   2.042
 1905SOL  HW2   5715   3.545   1.180   1.934
 1906SOL  OW    5716   3.514   1.103   2.347
 1906SOL  HW1   5717   3.614   1.099   2.336
 1906SOL  HW2   5718   3.493   1.143   2.436
 1907SOL  OW    5719   3.506   1.045   2.636
 1907SOL  HW1   5720   3.580   0.998   2.685
 1907SOL  HW2   5721   3.485   1.130   2.684
 1908SOL  OW    5722   3.504   1.042   2.954
 1908SOL  HW1   5723   3.541   0.987   2.880
 1908SOL  HW2   5724   3.573   1.054   3.025
 1909SOL  OW    5725   3.562   1.107   3.243
 1909SOL  HW1   5726   3.656   1.084   3.270
 1909SOL  HW2   5727   3.531   1.187   3.295
 1910SOL  OW    5728   3.524   1.109   3.522
 1910SOL  HW1   5729   3.607   1.120   3.577
 1910SOL  HW2   5730   3.457   1.178   3.551
 1911SOL  OW    5731   3.521   1.108   3.861
 1911SOL  HW1   5732   3.609   1.153   3.853
 1911SOL  HW2   5733   3.468   1.123   3.777
 1912SOL  OW    5734   3.570   1.357   0.190
 1912SOL  HW1   5735   3.636   1.329   0.120
 1912SOL  HW2   5736   3.558   1.456   0.186
 1913SOL  OW    5737   3.547   1.398   0.495
 1913SOL  HW1   5738   3.525   1.319   0.437
 1913SOL  HW2   5739   3.645   1.417   0.488
 1914SOL  OW    5740   3.529   1.402   0.780
 1914SOL  HW1   5741   3.609   1.382   0.724
 1914SOL  HW2   5742   3.559   1.436   0.870
 1915SOL  OW    5743   3.561   1.416   1.091
 1915SOL  HW1   5744   3.622   1.351   1.047
 1915SOL  HW2   5745   3.562   1.503   1.041
 1916SOL  OW    5746   3.504   1.359   1.421
 1916SOL  HW1   5747   3.527   1.302   1.342
 1916SOL  HW2   5748   3.544   1.320   1.503
 1917SOL  OW    5749   3.576   1.422   1.655
 1917SOL  HW1   5750   3.482   1.409   1.622
 1917SOL  HW2   5751   3.591   1.519   1.676
 1918SOL  OW    5752   3.529   1.405   2.020
 1918SOL  HW1   5753   3.607   1.343   2.014
 1918SOL  HW2   5754   3.496   1.408   2.115
 1919SOL  OW    5755   3.505   1.393   2.279
 1919SOL  HW1   5756   3.508   1.493   2.288
 1919SOL  HW2   5757   3.543   1.367   2.190
 1920SOL  OW    5758   3.538   1.364   2.580
 1920SOL  HW1   5759   3.580   1.321   2.500
 1920SOL  HW2   5760   3.450   1.321   2.598
 1921SOL  OW    5761   3.505   1.417   2.943
 1921SOL  HW1   5762   3.563   1.472   2.883
 1921SOL  HW2   5763   3.444   1.478   2.994
 1922SOL  OW    5764   3.573   1.382   3.224
 1922SOL  HW1   5765   3.641   1.445   3.185
 1922SOL  HW2   5766   3.617   1.295   3.246
 1923SOL  OW    5767   3.527   1.394   3.527
 1923SOL  HW1   5768   3.567   1.473   3.574
 1923SOL  HW2   5769   3.550   1.310   3.577
 1924SOL  OW    5770   3.558   1.409   3.876
 1924SOL  HW1   5771   3.612   1.371   3.952
 1924SOL  HW2   5772   3.542   1.338   3.808
 1925SOL  OW    5773   3.518   1.694   0.132
 1925SOL  HW1   5774   3.429   1.693   0.178
 1925SOL  HW2   5775   3.590   1.713   0.198
 1926SOL  OW    5776   3.501   1.709   0.465
 1926SOL  HW1   5777   3.415   1.714   0.415
 1926SOL  HW2   5778   3.545   1.620   0.450
 1927SOL  OW    5779   3.556   1.659   0.809
 1927SOL  HW1   5780   3.533   1.691   0.901
 1927SOL  HW2   5781   3.649   1.621   0.809
 1928SOL  OW    5782   3.578   1.690   1.106
 1928SOL  HW1   5783   3.667   1.669   1.066
 1928SOL  HW2   5784   3.510   1.696   1.034
 1929SOL  OW    5785   3.518   1.711   1.415
 1929SOL  HW1   5786   3.520   1.770   1.334
 1929SOL  HW2   5787   3.574   1.630   1.398
 1930SOL  OW    5788   3.564   1.717   1.689
 1930SOL  HW1   5789   3.556   1.699   1.591
 1930SOL  HW2   5790   3.473   1.717   1.731
 1931SOL  OW    5791   3.564   1.708   1.971
 1931SOL  HW1   5792   3.600   1.697   2.064
 1931SOL  HW2   5793   3.574   1.803   1.941
 1932SOL  OW    5794   3.508   1.714   2.318
 1932SOL  HW1   5795   3.450   1.770   2.377
 1932SOL  HW2   5796   3.521   1.761   2.231
 1933SOL  OW    5797   3.540   1.725   2.628
 1933SOL  HW1   5798   3.492   1.802   2.586
 1933SOL  HW2   5799   3.537   1.733   2.728
 1934SOL  OW    5800   3.530   1.685   2.931
 1934SOL  HW1   5801   3.573   1.729   2.852
 1934SOL  HW2   5802   3.577   1.714   3.015
 1935SOL  OW    5803   3.559   1.697   3.231
 1935SOL  HW1   5804   3.531   1.604   3.212
 1935SOL  HW2   5805   3.608   1.735   3.152
 1936SOL  OW    5806   3.557   1.709   3.565
 1936SOL  HW1   5807   3.634   1.765   3.594
 1936SOL  HW2   5808   3.589   1.634   3.507
 1937SOL  OW    5809   3.503   1.713   3.847
 1937SOL  HW1   5810   3.441   1.769   3.793
 1937SOL  HW2   5811   3.506   1.747   3.941
 1938SOL  OW    5812   3.504   2.014   0.171
 1938SOL  HW1   5813   3.420   1.983   0.127
 1938SOL  HW2   5814   3.497   2.112   0.191
 1939SOL  OW    5815   3.540   2.024   0.446
 1939SOL  HW1   5816   3.484   2.010   0.527
 1939SOL  HW2   5817   3.482   2.054   0.370
 1940SOL  OW    5818   3.515   1.988   0.762
 1940SOL  HW1   5819   3.478   2.057   0.699
 1940SOL  HW2   5820   3.460   1.987   0.846
 1941SOL  OW    5821   3.554   2.028   1.095
 1941SOL  HW1   5822   3.517   1.941   1.128
 1941SOL  HW2   5823   3.528   2.102   1.157
 1942SOL  OW    5824   3.512   1.989   1.357
 1942SOL  HW1   5825   3.420   1.981   1.395
 1942SOL  HW2   5826   3.574   2.027   1.427
 1943SOL  OW    5827   3.553   1.980   1.694
 1943SOL  HW1   5828   3.589   1.945   1.781
 1943SOL  HW2   5829   3.519   1.904   1.640
 1944SOL  OW    5830   3.562   2.014   1.984
 1944SOL  HW1   5831   3.639   1.952   1.968
 1944SOL  HW2   5832   3.586   2.105   1.953
 1945SOL  OW    5833   3.525   2.012   2.312
 1945SOL  HW1   5834   3.609   1.961   2.294
 1945SOL  HW2   5835   3.448   1.966   2.269
 1946SOL  OW    5836   3.506   2.030   2.616
 1946SOL  HW1   5837   3.428   1.985   2.661
 1946SOL  HW2   5838   3.525   2.117   2.662
 1947SOL  OW    5839   3.536   1.976   2.913
 1947SOL  HW1   5840   3.496   2.010   2.828
 1947SOL  HW2   5841   3.609   2.038   2.943
 1948SOL  OW    5842   3.525   1.982   3.236
 1948SOL  HW1   5843   3.573   1.899   3.266
 1948SOL  HW2   5844   3.501   2.037   3.316
 1949SOL  OW    5845   3.535   2.031   3.574
 1949SOL  HW1   5846   3.453   2.071   3.533
 1949SOL  HW2   5847   3.616   2.060   3.522
 1950SOL  OW    5848   3.516   1.968   3.869
 1950SOL  HW1   5849   3.460   1.999   3.792
 1950SOL  HW2   5850   3.540   2.046   3.926
 1951SOL  OW    5851   3.578   2.337   0.116
 1951SOL  HW1   5852   3.517   2.370   0.188
 1951SOL  HW2   5853   3.550   2.375   0.028
 1952SOL  OW    5854   3.519   2.271   0.487
 1952SOL  HW1   5855   3.558   2.261   0.396
 1952SOL  HW2   5856   3.489   2.366   0.501
 1953SOL  OW    5857   3.545   2.309   0.774
 1953SOL  HW1   5858   3.588   2.380   0.829
 1953SOL  HW2   5859   3.446   2.309   0.789
 1954SOL  OW    5860   3.519   2.316   1.039
 1954SOL  HW1   5861   3.616   2.304   1.022
 1954SOL  HW2   5862   3.505   2.343   1.135
 1955SOL  OW    5863   3.550   2.326   1.398
 1955SOL  HW1   5864   3.476   2.287   1.344
 1955SOL  HW2   5865   3.513   2.397   1.459
 1956SOL  OW    5866   3.525   2.334   1.710
 1956SOL  HW1   5867   3.569   2.351   1.621
 1956SOL  HW2   5868   3.593   2.301   1.775
 1957SOL  OW    5869   3.509   2.283   2.011
 1957SOL  HW1   5870   3.480   2.243   2.098
 1957SOL  HW2   5871   3.605   2.262   1.995
 1958SOL  OW    5872   3.522   2.277   2.280
 1958SOL  HW1   5873   3.535   2.328   2.195
 1958SOL  HW2   5874   3.553   2.183   2.268
 1959SOL  OW    5875   3.512   2.306   2.624
 1959SOL  HW1   5876   3.448   2.233   2.649
 1959SOL  HW2   5877   3.472   2.360   2.550
 1960SOL  OW    5878   3.513   2.325   2.906
 1960SOL  HW1   5879   3.513   2.316   2.806
 1960SOL  HW2   5880   3.607   2.332   2.939
 1961SOL  OW    5881   3.523   2.286   3.254
 1961SOL  HW1   5882   3.596   2.351   3.234
 1961SOL  HW2   5883   3.544   2.199   3.207
 1962SOL  OW    5884   3.575   2.307   3.502
 1962SOL  HW1   5885   3.568   2.398   3.462
 1962SOL  HW2   5886   3.521   2.304   3.586
 1963SOL  OW    5887   3.519   2.280   3.874
 1963SOL  HW1   5888   3.589   2.321   3.932
 1963SOL  HW2   5889   3.432   2.278   3.922
 1964SOL  OW    5890   3.505   2.653   0.161
 1964SOL  HW1   5891   3.517   2.571   0.217
 1964SOL  HW2   5892   3.408   2.664   0.138
 1965SOL  OW    5893   3.540   2.643   0.424
 1965SOL  HW1   5894   3.459   2.661   0.367
 1965SOL  HW2   5895   3.515   2.583   0.500
 1966SOL  OW    5896   3.561   2.585   0.796
 1966SOL  HW1   5897   3.632   2.617   0.734
 1966SOL  HW2   5898   3.593   2.503   0.845
 1967SOL  OW    5899   3.541   2.580   1.104
 1967SOL  HW1   5900   3.621   2.559   1.048
 1967SOL  HW2   5901   3.463   2.601   1.044
 1968SOL  OW    5902   3.501   2.586   1.408
 1968SOL  HW1   5903   3.558   2.668   1.397
 1968SOL  HW2   5904   3.450   2.594   1.495
 1969SOL  OW    5905   3.536   2.646   1.703
 1969SOL  HW1   5906   3.450   2.622   1.750
 1969SOL  HW2   5907   3.565   2.569   1.646
 1970SOL  OW    5908   3.548   2.599   1.971
 1970SOL  HW1   5909   3.549   2.591   1.871
 1970SOL  HW2   5910   3.642   2.595   2.005
 1971SOL  OW    5911   3.575   2.584   2.310
 1971SOL  HW1   5912   3.640   2.594   2.234
 1971SOL  HW2   5913   3.559   2.487   2.326
 1972SOL  OW    5914   3.520   2.597   2.623
 1972SOL  HW1   5915   3.562   2.566   2.538
 1972SOL  HW2   5916   3.455   2.670   2.604
 1973SOL  OW    5917   3.562   2.638   2.953
 1973SOL  HW1   5918   3.592   2.732   2.941
 1973SOL  HW2   5919   3.529   2.624   3.046
 1974SOL  OW    5920   3.522   2.613   3.192
 1974SOL  HW1   5921   3.520   2.518   3.223
 1974SOL  HW2   5922   3.526   2.614   3.092
 1975SOL  OW    5923   3.558   2.600   3.543
 1975SOL  HW1   5924   3.502   2.618   3.463
 1975SOL  HW2   5925   3.504   2.615   3.626
 1976SOL  OW    5926   3.512   2.641   3.872
 1976SOL  HW1   5927   3.442   2.707   3.898
 1976SOL  HW2   5928   3.574   2.683   3.805
 1977SOL  OW    5929   3.569   2.887   0.193
 1977SOL  HW1   5930   3.595   2.798   0.156
 1977SOL  HW2   5931   3.650   2.943   0.207
 1978SOL  OW    5932   3.518   2.908   0.441
 1978SOL  HW1   5933   3.475   2.912   0.351
 1978SOL  HW2   5934   3.524   2.813   0.472
 1979SOL  OW    5935   3.520   2.927   0.748
 1979SOL  HW1   5936   3.607   2.965   0.778
 1979SOL  HW2   5937   3.518   2.829   0.768
 1980SOL  OW    5938   3.530   2.936   1.104
 1980SOL  HW1   5939   3.434   2.958   1.120
 1980SOL  HW2   5940   3.555   2.960   1.010
 1981SOL  OW    5941   3.554   2.931   1.356
 1981SOL  HW1   5942   3.607   3.015   1.356
 1981SOL  HW2   5943   3.460   2.950   1.328
 1982SOL  OW    5944   3.564   2.886   1.673
 1982SOL  HW1   5945   3.527   2.850   1.759
 1982SOL  HW2   5946   3.646   2.940   1.693
 1983SOL  OW    5947   3.503   2.936   1.989
 1983SOL  HW1   5948   3.520   3.035   1.981
 1983SOL  HW2   5949   3.465   2.917   2.080
 1984SOL  OW    5950   3.551   2.911   2.304
 1984SOL  HW1   5951   3.567   2.998   2.351
 1984SOL  HW2   5952   3.637   2.875   2.270
 1985SOL  OW    5953   3.535   2.887   2.610
 1985SOL  HW1   5954   3.518   2.930   2.521
 1985SOL  HW2   5955   3.520   2.953   2.683
 1986SOL  OW    5956   3.550   2.927   2.889
 1986SOL  HW1   5957   3.533   2.828   2.886
 1986SOL  HW2   5958   3.491   2.972   2.822
 1987SOL  OW    5959   3.552   2.908   3.192
 1987SOL  HW1   5960   3.631   2.912   3.253
 1987SOL  HW2   5961   3.546   2.992   3.139
 1988SOL  OW    5962   3.511   2.923   3.523
 1988SOL  HW1   5963   3.417   2.909   3.492
 1988SOL  HW2   5964   3.521   3.017   3.556
 1989SOL  OW    5965   3.554   2.902   3.868
 1989SOL  HW1   5966   3.628   2.969   3.862
 1989SOL  HW2   5967   3.514   2.889   3.777
 1990SOL  OW    5968   3.521   3.240   0.178
 1990SOL  HW1   5969   3.473   3.317   0.220
 1990SOL  HW2   5970   3.507   3.243   0.079
 1991SOL  OW    5971   3.529   3.195   0.464
 1991SOL  HW1   5972   3.544   3.293   0.467
 1991SOL  HW2   5973   3.600   3.149   0.519
 1992SOL  OW    5974   3.578   3.268   0.747
 1992SOL  HW1   5975   3.677   3.251   0.743
 1992SOL  HW2   5976   3.554   3.339   0.681
 1993SOL  OW    5977   3.559   3.218   1.050
 1993SOL  HW1   5978   3.601   3.151   1.110
 1993SOL  HW2   5979   3.535   3.300   1.103
 1994SOL  OW    5980   3.552   3.231   1.388
 1994SOL  HW1   5981   3.502   3.317   1.402
 1994SOL  HW2   5982   3.543   3.173   1.469
 1995SOL  OW    5983   3.565   3.218   1.706
 1995SOL  HW1   5984   3.611   3.151   1.764
 1995SOL  HW2   5985   3.631   3.284   1.672
 1996SOL  OW    5986   3.528   3.194   1.990
 1996SOL  HW1   5987   3.512   3.134   2.068
 1996SOL  HW2   5988   3.559   3.284   2.023
 1997SOL  OW    5989   3.574   3.229   2.276
 1997SOL  HW1   5990   3.558   3.327   2.291
 1997SOL  HW2   5991   3.608   3.215   2.183
 1998SOL  OW    5992   3.553   3.268   2.648
 1998SOL  HW1   5993   3.547   3.365   2.624
 1998SOL  HW2   5994   3.499   3.251   2.730
 1999SOL  OW    5995   3.544   3.221   2.930
 1999SOL  HW1   5996   3.618   3.170   2.886
 1999SOL  HW2   5997   3.518   3.298   2.871
 2000SOL  OW    5998   3.564   3.260   3.256
 2000SOL  HW1   5999   3.613   3.344   3.235
 2000SOL  HW2   6000   3.511   3.273   3.341
 2001SOL  OW    6001   3.535   3.200   3.544
 2001SOL  HW1   6002   3.488   3.231   3.627
 2001SOL  HW2   6003   3.513   3.104   3.526
 2002SOL  OW    6004   3.511   3.196   3.846
 2002SOL  HW1   6005   3.413   3.179   3.856
 2002SOL  HW2   6006   3.535   3.280   3.894
 2003SOL  OW    6007   3.551   3.567   0.176
 2003SOL  HW1   6008   3.626   3.572   0.242
 2003SOL  HW2   6009   3.527   3.659   0.145
 2004SOL  OW    6010   3.567   3.559   0.478
 2004SOL  HW1   6011   3.496   3.493   0.503
 2004SOL  HW2   6012   3.572   3.630   0.548
 2005SOL  OW    6013   3.499   3.549   0.739
 2005SOL  HW1   6014   3.499   3.552   0.639
 2005SOL  HW2   6015   3.577   3.494   0.770
 2006SOL  OW    6016   3.503   3.511   1.103
 2006SOL  HW1   6017   3.545   3.516   1.194
 2006SOL  HW2   6018   3.412   3.552   1.106
 2007SOL  OW    6019   3.558   3.574   1.423
 2007SOL  HW1   6020   3.553   3.537   1.516
 2007SOL  HW2   6021   3.475   3.549   1.373
 2008SOL  OW    6022   3.570   3.509   1.723
 2008SOL  HW1   6023   3.619   3.523   1.809
 2008SOL  HW2   6024   3.596   3.421   1.683
 2009SOL  OW    6025   3.566   3.568   1.972
 2009SOL  HW1   6026   3.489   3.630   1.990
 2009SOL  HW2   6027   3.531   3.474   1.967
 2010SOL  OW    6028   3.508   3.572   2.282
 2010SOL  HW1   6029   3.601   3.573   2.317
 2010SOL  HW2   6030   3.443   3.576   2.358
 2011SOL  OW    6031   3.528   3.535   2.585
 2011SOL  HW1   6032   3.446   3.592   2.582
 2011SOL  HW2   6033   3.514   3.461   2.651
 2012SOL  OW    6034   3.500   3.578   2.953
 2012SOL  HW1   6035   3.403   3.553   2.953
 2012SOL  HW2   6036   3.555   3.497   2.973
 2013SOL  OW    6037   3.571   3.521   3.208
 2013SOL  HW1   6038   3.589   3.517   3.110
 2013SOL  HW2   6039   3.657   3.541   3.256
 2014SOL  OW    6040   3.533   3.535   3.499
 2014SOL  HW1   6041   3.547   3.634   3.504
 2014SOL  HW2   6042   3.607   3.488   3.547
 2015SOL  OW    6043   3.561   3.578   3.848
 2015SOL  HW1   6044   3.590   3.542   3.760
 2015SOL  HW2   6045   3.557   3.678   3.844
 2016SOL  OW    6046   3.530   3.838   0.122
 2016SOL  HW1   6047   3.452   3.778   0.144
 2016SOL  HW2   6048   3.612   3.803   0.165
 2017SOL  OW    6049   3.520   3.846   0.456
 2017SOL  HW1   6050   3.605   3.899   0.456
 2017SOL  HW2   6051   3.442   3.907   0.472
 2018SOL  OW    6052   3.542   3.874   0.747
 2018SOL  HW1   6053   3.636   3.842   0.759
 2018SOL  HW2   6054   3.541   3.952   0.685
 2019SOL  OW    6055   3.501   3.809   1.048
 2019SOL  HW1   6056   3.415   3.759   1.055
 2019SOL  HW2   6057   3.538   3.797   0.956
 2020SOL  OW    6058   3.544   3.871   1.416
 2020SOL  HW1   6059   3.625   3.898   1.467
 2020SOL  HW2   6060   3.570   3.803   1.347
 2021SOL  OW    6061   3.549   3.838   1.665
 2021SOL  HW1   6062   3.567   3.881   1.576
 2021SOL  HW2   6063   3.461   3.791   1.662
 2022SOL  OW    6064   3.531   3.833   2.030
 2022SOL  HW1   6065   3.589   3.865   2.104
 2022SOL  HW2   6066   3.586   3.814   1.949
 2023SOL  OW    6067   3.537   3.824   2.291
 2023SOL  HW1   6068   3.582   3.804   2.378
 2023SOL  HW2   6069   3.442   3.851   2.307
 2024SOL  OW    6070   3.509   3.880   2.579
 2024SOL  HW1   6071   3.424   3.860   2.532
 2024SOL  HW2   6072   3.564   3.796   2.586
 2025SOL  OW    6073   3.499   3.821   2.948
 2025SOL  HW1   6074   3.463   3.913   2.935
 2025SOL  HW2   6075   3.448   3.756   2.891
 2026SOL  OW    6076   3.540   3.856   3.219
 2026SOL  HW1   6077   3.491   3.793   3.280
 2026SOL  HW2   6078   3.633   3.822   3.205
 2027SOL  OW    6079   3.504   3.875   3.514
 2027SOL  HW1   6080   3.539   3.802   3.454
 2027SOL  HW2   6081   3.405   3.867   3.521
 2028SOL  OW    6082   3.501   3.852   3.813
 2028SOL  HW1   6083   3.514   3.804   3.900
 2028SOL  HW2   6084   3.576   3.828   3.751
 2029SOL  OW    6085   3.814   0.178   0.153
 2029SOL  HW1   6086   3.775   0.145   0.067
 2029SOL  HW2   6087   3.913   0.183   0.146
 2030SOL  OW    6088   3.825   0.142   0.480
 2030SOL  HW1   6089   3.892   0.216   0.478
 2030SOL  HW2   6090   3.872   0.055   0.499
 2031SOL  OW    6091   3.811   0.123   0.779
 2031SOL  HW1   6092   3.865   0.202   0.748
 2031SOL  HW2   6093   3.797   0.061   0.701
 2032SOL  OW    6094   3.855   0.192   1.067
 2032SOL  HW1   6095   3.888   0.152   0.981
 2032SOL  HW2   6096   3.900   0.147   1.144
 2033SOL  OW    6097   3.811   0.157   1.396
 2033SOL  HW1   6098   3.822   0.106   1.310
 2033SOL  HW2   6099   3.878   0.231   1.399
 2034SOL  OW    6100   3.817   0.158   1.668
 2034SOL  HW1   6101   3.853   0.249   1.644
 2034SOL  HW2   6102   3.890   0.104   1.709
 2035SOL  OW    6103   3.874   0.181   1.994
 2035SOL  HW1   6104   3.924   0.224   1.919
 2035SOL  HW2   6105   3.935   0.167   2.072
 2036SOL  OW    6106   3.883   0.192   2.278
 2036SOL  HW1   6107   3.795   0.214   2.237
 2036SOL  HW2   6108   3.879   0.206   2.377
 2037SOL  OW    6109   3.836   0.162   2.582
 2037SOL  HW1   6110   3.835   0.227   2.506
 2037SOL  HW2   6111   3.807   0.208   2.666
 2038SOL  OW    6112   3.837   0.135   2.959
 2038SOL  HW1   6113   3.823   0.203   3.031
 2038SOL  HW2   6114   3.748   0.101   2.927
 2039SOL  OW    6115   3.839   0.175   3.222
 2039SOL  HW1   6116   3.786   0.095   3.249
 2039SOL  HW2   6117   3.806   0.209   3.134
 2040SOL  OW    6118   3.817   0.183   3.498
 2040SOL  HW1   6119   3.854   0.157   3.409
 2040SOL  HW2   6120   3.863   0.266   3.531
 2041SOL  OW    6121   3.811   0.143   3.861
 2041SOL  HW1   6122   3.857   0.055   3.873
 2041SOL  HW2   6123   3.873   0.218   3.886
 2042SOL  OW    6124   3.833   0.427   0.139
 2042SOL  HW1   6125   3.824   0.335   0.102
 2042SOL  HW2   6126   3.926   0.461   0.121
 2043SOL  OW    6127   3.826   0.422   0.464
 2043SOL  HW1   6128   3.752   0.421   0.532
 2043SOL  HW2   6129   3.787   0.435   0.373
 2044SOL  OW    6130   3.815   0.445   0.781
 2044SOL  HW1   6131   3.835   0.534   0.741
 2044SOL  HW2   6132   3.861   0.374   0.726
 2045SOL  OW    6133   3.864   0.443   1.063
 2045SOL  HW1   6134   3.908   0.353   1.051
 2045SOL  HW2   6135   3.809   0.465   0.983
 2046SOL  OW    6136   3.826   0.498   1.360
 2046SOL  HW1   6137   3.742   0.522   1.409
 2046SOL  HW2   6138   3.831   0.399   1.349
 2047SOL  OW    6139   3.821   0.457   1.667
 2047SOL  HW1   6140   3.792   0.396   1.741
 2047SOL  HW2   6141   3.804   0.552   1.694
 2048SOL  OW    6142   3.819   0.429   2.011
 2048SOL  HW1   6143   3.917   0.441   1.997
 2048SOL  HW2   6144   3.800   0.414   2.108
 2049SOL  OW    6145   3.855   0.474   2.330
 2049SOL  HW1   6146   3.930   0.428   2.282
 2049SOL  HW2   6147   3.776   0.412   2.334
 2050SOL  OW    6148   3.832   0.495   2.634
 2050SOL  HW1   6149   3.862   0.587   2.609
 2050SOL  HW2   6150   3.890   0.461   2.708
 2051SOL  OW    6151   3.871   0.479   2.912
 2051SOL  HW1   6152   3.857   0.405   2.846
 2051SOL  HW2   6153   3.966   0.508   2.910
 2052SOL  OW    6154   3.829   0.455   3.199
 2052SOL  HW1   6155   3.876   0.429   3.114
 2052SOL  HW2   6156   3.730   0.447   3.185
 2053SOL  OW    6157   3.842   0.425   3.499
 2053SOL  HW1   6158   3.924   0.427   3.556
 2053SOL  HW2   6159   3.855   0.486   3.420
 2054SOL  OW    6160   3.881   0.477   3.851
 2054SOL  HW1   6161   3.813   0.505   3.784
 2054SOL  HW2   6162   3.908   0.382   3.833
 2055SOL  OW    6163   3.833   0.775   0.185
 2055SOL  HW1   6164   3.925   0.737   0.195
 2055SOL  HW2   6165   3.789   0.778   0.275
 2056SOL  OW    6166   3.858   0.777   0.458
 2056SOL  HW1   6167   3.927   0.710   0.486
 2056SOL  HW2   6168   3.895   0.834   0.384
 2057SOL  OW    6169   3.834   0.785   0.808
 2057SOL  HW1   6170   3.932   0.797   0.819
 2057SOL  HW2   6171   3.785   0.847   0.869
 2058SOL  OW    6172   3.840   0.761   1.071
 2058SOL  HW1   6173   3.930   0.764   1.116
 2058SOL  HW2   6174   3.796   0.850   1.077
 2059SOL  OW    6175   3.840   0.808   1.401
 2059SOL  HW1   6176   3.881   0.717   1.401
 2059SOL  HW2   6177   3.851   0.850   1.311
 2060SOL  OW    6178   3.835   0.759   1.687
 2060SOL  HW1   6179   3.884   0.822   1.627
 2060SOL  HW2   6180   3.738   0.758   1.662
 2061SOL  OW    6181   3.809   0.771   2.025
 2061SOL  HW1   6182   3.846   0.857   2.061
 2061SOL  HW2   6183   3.877   0.699   2.034
 2062SOL  OW    6184   3.859   0.745   2.326
 2062SOL  HW1   6185   3.915   0.825   2.306
 2062SOL  HW2   6186   3.813   0.715   2.242
 2063SOL  OW    6187   3.864   0.750   2.625
 2063SOL  HW1   6188   3.878   0.699   2.541
 2063SOL  HW2   6189   3.861   0.687   2.703
 2064SOL  OW    6190   3.855   0.796   2.894
 2064SOL  HW1   6191   3.839   0.698   2.885
 2064SOL  HW2   6192   3.931   0.812   2.957
 2065SOL  OW    6193   3.822   0.768   3.194
 2065SOL  HW1   6194   3.862   0.812   3.274
 2065SOL  HW2   6195   3.778   0.837   3.137
 2066SOL  OW    6196   3.839   0.792   3.510
 2066SOL  HW1   6197   3.746   0.801   3.476
 2066SOL  HW2   6198   3.840   0.807   3.609
 2067SOL  OW    6199   3.843   0.808   3.847
 2067SOL  HW1   6200   3.872   0.861   3.927
 2067SOL  HW2   6201   3.923   0.769   3.802
 2068SOL  OW    6202   3.846   1.082   0.129
 2068SOL  HW1   6203   3.820   1.164   0.079
 2068SOL  HW2   6204   3.872   1.011   0.063
 2069SOL  OW    6205   3.818   1.091   0.453
 2069SOL  HW1   6206   3.751   1.047   0.513
 2069SOL  HW2   6207   3.829   1.187   0.480
 2070SOL  OW    6208   3.829   1.039   0.797
 2070SOL  HW1   6209   3.737   1.073   0.780
 2070SOL  HW2   6210   3.882   1.109   0.845
 2071SOL  OW    6211   3.809   1.097   1.067
 2071SOL  HW1   6212   3.709   1.105   1.061
 2071SOL  HW2   6213   3.850   1.128   0.982
 2072SOL  OW    6214   3.854   1.057   1.357
 2072SOL  HW1   6215   3.785   1.019   1.295
 2072SOL  HW2   6216   3.851   1.157   1.353
 2073SOL  OW    6217   3.849   1.093   1.668
 2073SOL  HW1   6218   3.851   1.143   1.754
 2073SOL  HW2   6219   3.822   0.998   1.685
 2074SOL  OW    6220   3.841   1.072   1.977
 2074SOL  HW1   6221   3.777   1.005   2.013
 2074SOL  HW2   6222   3.798   1.163   1.979
 2075SOL  OW    6223   3.851   1.049   2.308
 2075SOL  HW1   6224   3.938   1.001   2.323
 2075SOL  HW2   6225   3.858   1.106   2.227
 2076SOL  OW    6226   3.815   1.076   2.600
 2076SOL  HW1   6227   3.798   1.094   2.697
 2076SOL  HW2   6228   3.808   0.977   2.583
 2077SOL  OW    6229   3.842   1.072   2.956
 2077SOL  HW1   6230   3.838   1.168   2.984
 2077SOL  HW2   6231   3.829   1.065   2.857
 2078SOL  OW    6232   3.845   1.102   3.209
 2078SOL  HW1   6233   3.834   1.016   3.160
 2078SOL  HW2   6234   3.901   1.087   3.291
 2079SOL  OW    6235   3.834   1.043   3.532
 2079SOL  HW1   6236   3.868   1.012   3.621
 2079SOL  HW2   6237   3.735   1.033   3.529
 2080SOL  OW    6238   3.860   1.104   3.851
 2080SOL  HW1   6239   3.780   1.165   3.849
 2080SOL  HW2   6240   3.860   1.047   3.770
 2081SOL  OW    6241   3.857   1.359   0.117
 2081SOL  HW1   6242   3.804   1.440   0.094
 2081SOL  HW2   6243   3.906   1.327   0.035
 2082SOL  OW    6244   3.869   1.358   0.429
 2082SOL  HW1   6245   3.874   1.434   0.364
 2082SOL  HW2   6246   3.942   1.292   0.408
 2083SOL  OW    6247   3.881   1.422   0.779
 2083SOL  HW1   6248   3.918   1.515   0.777
 2083SOL  HW2   6249   3.957   1.356   0.780
 2084SOL  OW    6250   3.836   1.411   1.053
 2084SOL  HW1   6251   3.748   1.428   1.009
 2084SOL  HW2   6252   3.878   1.499   1.077
 2085SOL  OW    6253   3.841   1.373   1.418
 2085SOL  HW1   6254   3.859   1.289   1.367
 2085SOL  HW2   6255   3.909   1.442   1.394
 2086SOL  OW    6256   3.880   1.397   1.661
 2086SOL  HW1   6257   3.824   1.462   1.713
 2086SOL  HW2   6258   3.977   1.415   1.678
 2087SOL  OW    6259   3.845   1.364   2.031
 2087SOL  HW1   6260   3.746   1.353   2.042
 2087SOL  HW2   6261   3.873   1.453   2.068
 2088SOL  OW    6262   3.817   1.349   2.324
 2088SOL  HW1   6263   3.888   1.388   2.266
 2088SOL  HW2   6264   3.825   1.249   2.324
 2089SOL  OW    6265   3.842   1.412   2.581
 2089SOL  HW1   6266   3.751   1.398   2.543
 2089SOL  HW2   6267   3.901   1.456   2.513
 2090SOL  OW    6268   3.870   1.348   2.885
 2090SOL  HW1   6269   3.794   1.407   2.861
 2090SOL  HW2   6270   3.835   1.263   2.925
 2091SOL  OW    6271   3.843   1.362   3.238
 2091SOL  HW1   6272   3.816   1.270   3.267
 2091SOL  HW2   6273   3.802   1.382   3.149
 2092SOL  OW    6274   3.808   1.347   3.557
 2092SOL  HW1   6275   3.830   1.334   3.653
 2092SOL  HW2   6276   3.737   1.417   3.548
 2093SOL  OW    6277   3.823   1.397   3.866
 2093SOL  HW1   6278   3.724   1.400   3.878
 2093SOL  HW2   6279   3.847   1.428   3.774
 2094SOL  OW    6280   3.811   1.714   0.135
 2094SOL  HW1   6281   3.850   1.629   0.099
 2094SOL  HW2   6282   3.729   1.738   0.083
 2095SOL  OW    6283   3.837   1.659   0.489
 2095SOL  HW1   6284   3.759   1.713   0.520
 2095SOL  HW2   6285   3.806   1.588   0.425
 2096SOL  OW    6286   3.851   1.693   0.807
 2096SOL  HW1   6287   3.834   1.738   0.719
 2096SOL  HW2   6288   3.783   1.620   0.821
 2097SOL  OW    6289   3.833   1.724   1.094
 2097SOL  HW1   6290   3.823   1.685   1.003
 2097SOL  HW2   6291   3.908   1.789   1.095
 2098SOL  OW    6292   3.880   1.725   1.424
 2098SOL  HW1   6293   3.913   1.818   1.439
 2098SOL  HW2   6294   3.919   1.664   1.493
 2099SOL  OW    6295   3.817   1.716   1.717
 2099SOL  HW1   6296   3.753   1.662   1.772
 2099SOL  HW2   6297   3.792   1.707   1.620
 2100SOL  OW    6298   3.858   1.675   2.037
 2100SOL  HW1   6299   3.810   1.649   1.953
 2100SOL  HW2   6300   3.834   1.611   2.110
 2101SOL  OW    6301   3.823   1.692   2.309
 2101SOL  HW1   6302   3.783   1.604   2.334
 2101SOL  HW2   6303   3.771   1.733   2.234
 2102SOL  OW    6304   3.819   1.710   2.582
 2102SOL  HW1   6305   3.797   1.747   2.673
 2102SOL  HW2   6306   3.761   1.753   2.513
 2103SOL  OW    6307   3.862   1.720   2.911
 2103SOL  HW1   6308   3.899   1.752   2.998
 2103SOL  HW2   6309   3.777   1.769   2.891
 2104SOL  OW    6310   3.863   1.665   3.258
 2104SOL  HW1   6311   3.951   1.679   3.213
 2104SOL  HW2   6312   3.878   1.646   3.355
 2105SOL  OW    6313   3.882   1.665   3.554
 2105SOL  HW1   6314   3.941   1.643   3.476
 2105SOL  HW2   6315   3.800   1.608   3.550
 2106SOL  OW    6316   3.847   1.695   3.863
 2106SOL  HW1   6317   3.821   1.724   3.955
 2106SOL  HW2   6318   3.767   1.656   3.817
 2107SOL  OW    6319   3.845   2.008   0.132
 2107SOL  HW1   6320   3.835   1.950   0.213
 2107SOL  HW2   6321   3.871   1.952   0.054
 2108SOL  OW    6322   3.836   2.029   0.430
 2108SOL  HW1   6323   3.799   2.068   0.514
 2108SOL  HW2   6324   3.932   2.006   0.445
 2109SOL  OW    6325   3.854   1.975   0.797
 2109SOL  HW1   6326   3.870   1.904   0.728
 2109SOL  HW2   6327   3.792   1.940   0.867
 2110SOL  OW    6328   3.852   1.992   1.057
 2110SOL  HW1   6329   3.930   1.931   1.045
 2110SOL  HW2   6330   3.883   2.077   1.100
 2111SOL  OW    6331   3.841   2.037   1.385
 2111SOL  HW1   6332   3.818   1.942   1.408
 2111SOL  HW2   6333   3.823   2.052   1.288
 2112SOL  OW    6334   3.844   2.020   1.683
 2112SOL  HW1   6335   3.797   2.051   1.600
 2112SOL  HW2   6336   3.869   1.923   1.673
 2113SOL  OW    6337   3.840   1.987   1.972
 2113SOL  HW1   6338   3.775   1.970   1.898
 2113SOL  HW2   6339   3.929   1.946   1.948
 2114SOL  OW    6340   3.863   2.030   2.340
 2114SOL  HW1   6341   3.922   2.108   2.362
 2114SOL  HW2   6342   3.768   2.060   2.335
 2115SOL  OW    6343   3.877   1.996   2.598
 2115SOL  HW1   6344   3.946   2.006   2.669
 2115SOL  HW2   6345   3.787   1.987   2.641
 2116SOL  OW    6346   3.857   2.036   2.941
 2116SOL  HW1   6347   3.877   2.054   2.845
 2116SOL  HW2   6348   3.934   2.067   2.997
 2117SOL  OW    6349   3.846   2.015   3.253
 2117SOL  HW1   6350   3.926   1.978   3.298
 2117SOL  HW2   6351   3.853   2.115   3.248
 2118SOL  OW    6352   3.880   2.021   3.533
 2118SOL  HW1   6353   3.913   2.110   3.566
 2118SOL  HW2   6354   3.792   2.000   3.577
 2119SOL  OW    6355   3.828   2.000   3.832
 2119SOL  HW1   6356   3.916   2.034   3.798
 2119SOL  HW2   6357   3.756   2.067   3.813
 2120SOL  OW    6358   3.882   2.308   0.152
 2120SOL  HW1   6359   3.892   2.246   0.229
 2120SOL  HW2   6360   3.954   2.377   0.153
 2121SOL  OW    6361   3.834   2.319   0.463
 2121SOL  HW1   6362   3.808   2.233   0.418
 2121SOL  HW2   6363   3.931   2.336   0.448
 2122SOL  OW    6364   3.816   2.337   0.758
 2122SOL  HW1   6365   3.767   2.267   0.809
 2122SOL  HW2   6366   3.813   2.316   0.660
 2123SOL  OW    6367   3.841   2.284   1.081
 2123SOL  HW1   6368   3.849   2.379   1.111
 2123SOL  HW2   6369   3.855   2.223   1.159
 2124SOL  OW    6370   3.862   2.338   1.349
 2124SOL  HW1   6371   3.935   2.312   1.285
 2124SOL  HW2   6372   3.881   2.298   1.439
 2125SOL  OW    6373   3.884   2.324   1.675
 2125SOL  HW1   6374   3.827   2.327   1.593
 2125SOL  HW2   6375   3.826   2.308   1.755
 2126SOL  OW    6376   3.823   2.291   2.030
 2126SOL  HW1   6377   3.725   2.308   2.018
 2126SOL  HW2   6378   3.874   2.355   1.973
 2127SOL  OW    6379   3.829   2.305   2.324
 2127SOL  HW1   6380   3.926   2.306   2.298
 2127SOL  HW2   6381   3.774   2.341   2.249
 2128SOL  OW    6382   3.876   2.320   2.636
 2128SOL  HW1   6383   3.888   2.236   2.688
 2128SOL  HW2   6384   3.791   2.365   2.663
 2129SOL  OW    6385   3.820   2.338   2.905
 2129SOL  HW1   6386   3.769   2.254   2.925
 2129SOL  HW2   6387   3.917   2.323   2.925
 2130SOL  OW    6388   3.816   2.346   3.207
 2130SOL  HW1   6389   3.824   2.361   3.305
 2130SOL  HW2   6390   3.883   2.276   3.179
 2131SOL  OW    6391   3.817   2.318   3.524
 2131SOL  HW1   6392   3.797   2.221   3.508
 2131SOL  HW2   6393   3.885   2.326   3.597
 2132SOL  OW    6394   3.817   2.316   3.867
 2132SOL  HW1   6395   3.805   2.414   3.849
 2132SOL  HW2   6396   3.894   2.302   3.929
 2133SOL  OW    6397   3.870   2.588   0.158
 2133SOL  HW1   6398   3.893   2.557   0.251
 2133SOL  HW2   6399   3.870   2.510   0.096
 2134SOL  OW    6400   3.871   2.588   0.438
 2134SOL  HW1   6401   3.944   2.642   0.481
 2134SOL  HW2   6402   3.817   2.647   0.378
 2135SOL  OW    6403   3.806   2.617   0.745
 2135SOL  HW1   6404   3.796   2.558   0.824
 2135SOL  HW2   6405   3.902   2.643   0.735
 2136SOL  OW    6406   3.864   2.652   1.054
 2136SOL  HW1   6407   3.874   2.597   0.971
 2136SOL  HW2   6408   3.782   2.624   1.103
 2137SOL  OW    6409   3.858   2.592   1.346
 2137SOL  HW1   6410   3.870   2.636   1.257
 2137SOL  HW2   6411   3.815   2.657   1.409
 2138SOL  OW    6412   3.867   2.610   1.728
 2138SOL  HW1   6413   3.793   2.668   1.763
 2138SOL  HW2   6414   3.829   2.526   1.689
 2139SOL  OW    6415   3.849   2.588   1.996
 2139SOL  HW1   6416   3.890   2.667   2.042
 2139SOL  HW2   6417   3.755   2.610   1.970
 2140SOL  OW    6418   3.822   2.646   2.323
 2140SOL  HW1   6419   3.757   2.721   2.335
 2140SOL  HW2   6420   3.774   2.565   2.288
 2141SOL  OW    6421   3.833   2.618   2.629
 2141SOL  HW1   6422   3.878   2.569   2.704
 2141SOL  HW2   6423   3.772   2.687   2.667
 2142SOL  OW    6424   3.869   2.582   2.885
 2142SOL  HW1   6425   3.860   2.552   2.790
 2142SOL  HW2   6426   3.965   2.601   2.905
 2143SOL  OW    6427   3.815   2.607   3.228
 2143SOL  HW1   6428   3.816   2.684   3.292
 2143SOL  HW2   6429   3.850   2.637   3.139
 2144SOL  OW    6430   3.817   2.608   3.534
 2144SOL  HW1   6431   3.735   2.609   3.476
 2144SOL  HW2   6432   3.826   2.519   3.578
 2145SOL  OW    6433   3.815   2.649   3.854
 2145SOL  HW1   6434   3.912   2.650   3.830
 2145SOL  HW2   6435   3.764   2.593   3.788
 2146SOL  OW    6436   3.837   2.924   0.139
 2146SOL  HW1   6437   3.881   2.967   0.217
 2146SOL  HW2   6438   3.879   2.957   0.054
 2147SOL  OW    6439   3.875   2.929   0.461
 2147SOL  HW1   6440   3.963   2.933   0.414
 2147SOL  HW2   6441   3.801   2.936   0.394
 2148SOL  OW    6442   3.879   2.950   0.794
 2148SOL  HW1   6443   3.966   2.976   0.753
 2148SOL  HW2   6444   3.844   2.868   0.750
 2149SOL  OW    6445   3.824   2.895   1.092
 2149SOL  HW1   6446   3.770   2.977   1.113
 2149SOL  HW2   6447   3.823   2.833   1.171
 2150SOL  OW    6448   3.844   2.938   1.405
 2150SOL  HW1   6449   3.924   2.964   1.459
 2150SOL  HW2   6450   3.777   2.892   1.465
 2151SOL  OW    6451   3.830   2.906   1.692
 2151SOL  HW1   6452   3.839   2.876   1.596
 2151SOL  HW2   6453   3.835   3.006   1.696
 2152SOL  OW    6454   3.828   2.936   2.020
 2152SOL  HW1   6455   3.753   2.873   2.004
 2152SOL  HW2   6456   3.881   2.907   2.100
 2153SOL  OW    6457   3.844   2.941   2.309
 2153SOL  HW1   6458   3.799   2.881   2.374
 2153SOL  HW2   6459   3.867   3.027   2.353
 2154SOL  OW    6460   3.863   2.901   2.634
 2154SOL  HW1   6461   3.893   2.941   2.721
 2154SOL  HW2   6462   3.903   2.810   2.624
 2155SOL  OW    6463   3.863   2.904   2.928
 2155SOL  HW1   6464   3.919   2.972   2.976
 2155SOL  HW2   6465   3.877   2.914   2.829
 2156SOL  OW    6466   3.875   2.903   3.250
 2156SOL  HW1   6467   3.817   2.842   3.304
 2156SOL  HW2   6468   3.950   2.851   3.210
 2157SOL  OW    6469   3.882   2.952   3.531
 2157SOL  HW1   6470   3.797   2.968   3.481
 2157SOL  HW2   6471   3.934   3.038   3.535
 2158SOL  OW    6472   3.855   2.962   3.852
 2158SOL  HW1   6473   3.916   2.956   3.930
 2158SOL  HW2   6474   3.769   3.006   3.879
 2159SOL  OW    6475   3.815   3.194   0.177
 2159SOL  HW1   6476   3.855   3.107   0.150
 2159SOL  HW2   6477   3.777   3.187   0.269
 2160SOL  OW    6478   3.840   3.211   0.449
 2160SOL  HW1   6479   3.826   3.127   0.397
 2160SOL  HW2   6480   3.894   3.190   0.531
 2161SOL  OW    6481   3.867   3.228   0.799
 2161SOL  HW1   6482   3.908   3.201   0.886
 2161SOL  HW2   6483   3.917   3.185   0.724
 2162SOL  OW    6484   3.865   3.269   1.108
 2162SOL  HW1   6485   3.788   3.224   1.153
 2162SOL  HW2   6486   3.950   3.235   1.147
 2163SOL  OW    6487   3.827   3.243   1.346
 2163SOL  HW1   6488   3.791   3.153   1.369
 2163SOL  HW2   6489   3.761   3.314   1.375
 2164SOL  OW    6490   3.885   3.212   1.705
 2164SOL  HW1   6491   3.927   3.269   1.776
 2164SOL  HW2   6492   3.888   3.260   1.618
 2165SOL  OW    6493   3.874   3.204   2.028
 2165SOL  HW1   6494   3.843   3.250   1.945
 2165SOL  HW2   6495   3.824   3.238   2.107
 2166SOL  OW    6496   3.807   3.226   2.305
 2166SOL  HW1   6497   3.769   3.263   2.221
 2166SOL  HW2   6498   3.907   3.237   2.305
 2167SOL  OW    6499   3.836   3.238   2.649
 2167SOL  HW1   6500   3.793   3.249   2.559
 2167SOL  HW2   6501   3.782   3.175   2.704
 2168SOL  OW    6502   3.832   3.237   2.953
 2168SOL  HW1   6503   3.896   3.256   3.028
 2168SOL  HW2   6504   3.773   3.316   2.939
 2169SOL  OW    6505   3.868   3.194   3.266
 2169SOL  HW1   6506   3.812   3.275   3.249
 2169SOL  HW2   6507   3.912   3.166   3.181
 2170SOL  OW    6508   3.810   3.238   3.544
 2170SOL  HW1   6509   3.767   3.148   3.548
 2170SOL  HW2   6510   3.743   3.306   3.513
 2171SOL  OW    6511   3.869   3.203   3.821
 2171SOL  HW1   6512   3.898   3.167   3.732
 2171SOL  HW2   6513   3.939   3.182   3.889
 2172SOL  OW    6514   3.866   3.510   0.151
 2172SOL  HW1   6515   3.894   3.603   0.124
 2172SOL  HW2   6516   3.914   3.484   0.235
 2173SOL  OW    6517   3.865   3.551   0.438
 2173SOL  HW1   6518   3.843   3.605   0.520
 2173SOL  HW2   6519   3.964   3.547   0.426
 2174SOL  OW    6520   3.830   3.576   0.765
 2174SOL  HW1   6521   3.792   3.663   0.734
 2174SOL  HW2   6522   3.904   3.548   0.703
 2175SOL  OW    6523   3.810   3.516   1.064
 2175SOL  HW1   6524   3.840   3.551   0.976
 2175SOL  HW2   6525   3.807   3.416   1.062
 2176SOL  OW    6526   3.886   3.523   1.347
 2176SOL  HW1   6527   3.951   3.586   1.390
 2176SOL  HW2   6528   3.807   3.509   1.407
 2177SOL  OW    6529   3.847   3.505   1.674
 2177SOL  HW1   6530   3.879   3.584   1.622
 2177SOL  HW2   6531   3.751   3.488   1.654
 2178SOL  OW    6532   3.886   3.555   1.964
 2178SOL  HW1   6533   3.867   3.647   1.997
 2178SOL  HW2   6534   3.942   3.506   2.031
 2179SOL  OW    6535   3.842   3.512   2.278
 2179SOL  HW1   6536   3.893   3.440   2.231
 2179SOL  HW2   6537   3.898   3.549   2.352
 2180SOL  OW    6538   3.853   3.539   2.635
 2180SOL  HW1   6539   3.901   3.545   2.547
 2180SOL  HW2   6540   3.776   3.603   2.636
 2181SOL  OW    6541   3.878   3.518   2.957
 2181SOL  HW1   6542   3.803   3.580   2.932
 2181SOL  HW2   6543   3.848   3.423   2.946
 2182SOL  OW    6544   3.848   3.519   3.258
 2182SOL  HW1   6545   3.884   3.573   3.335
 2182SOL  HW2   6546   3.850   3.422   3.282
 2183SOL  OW    6547   3.809   3.543   3.556
 2183SOL  HW1   6548   3.841   3.573   3.467
 2183SOL  HW2   6549   3.879   3.486   3.599
 2184SOL  OW    6550   3.829   3.568   3.825
 2184SOL  HW1   6551   3.739   3.561   3.781
 2184SOL  HW2   6552   3.900   3.580   3.756
 2185SOL  OW    6553   3.873   3.812   0.127
 2185SOL  HW1   6554   3.814   3.732   0.129
 2185SOL  HW2   6555   3.819   3.893   0.102
 2186SOL  OW    6556   3.837   3.874   0.433
 2186SOL  HW1   6557   3.749   3.856   0.389
 2186SOL  HW2   6558   3.906   3.812   0.397
 2187SOL  OW    6559   3.876   3.825   0.765
 2187SOL  HW1   6560   3.965   3.837   0.722
 2187SOL  HW2   6561   3.889   3.811   0.864
 2188SOL  OW    6562   3.834   3.816   1.112
 2188SOL  HW1   6563   3.821   3.912   1.089
 2188SOL  HW2   6564   3.914   3.807   1.173
 2189SOL  OW    6565   3.841   3.861   1.391
 2189SOL  HW1   6566   3.754   3.907   1.410
 2189SOL  HW2   6567   3.824   3.771   1.352
 2190SOL  OW    6568   3.846   3.855   1.724
 2190SOL  HW1   6569   3.887   3.779   1.675
 2190SOL  HW2   6570   3.778   3.900   1.666
 2191SOL  OW    6571   3.862   3.849   2.012
 2191SOL  HW1   6572   3.875   3.894   2.100
 2191SOL  HW2   6573   3.933   3.780   1.999
 2192SOL  OW    6574   3.855   3.841   2.318
 2192SOL  HW1   6575   3.883   3.881   2.405
 2192SOL  HW2   6576   3.935   3.825   2.260
 2193SOL  OW    6577   3.842   3.867   2.653
 2193SOL  HW1   6578   3.897   3.898   2.730
 2193SOL  HW2   6579   3.895   3.873   2.568
 2194SOL  OW    6580   3.883   3.872   2.931
 2194SOL  HW1   6581   3.931   3.871   2.843
 2194SOL  HW2   6582   3.831   3.787   2.941
 2195SOL  OW    6583   3.866   3.820   3.229
 2195SOL  HW1   6584   3.822   3.910   3.223
 2195SOL  HW2   6585   3.925   3.807   3.149
 2196SOL  OW    6586   3.827   3.806   3.576
 2196SOL  HW1   6587   3.819   3.885   3.637
 2196SOL  HW2   6588   3.835   3.838   3.481
 2197SOL  OW    6589   3.875   3.847   3.826
 2197SOL  HW1   6590   3.932   3.775   3.787
 2197SOL  HW2   6591   3.789   3.808   3.857
   4.00000   4.00000   4.00000
