Pre-built TIP3P water box, 2197 mols, 4.0nm
 6591
    1SOL  OW       1   0.176   0.149   0.183
    1SOL  HW1      2   0.121   0.143   0.104
    1SOL  HW2      3   0.121   0.196   0.246
    2SOL  OW       4   0.170   0.121   0.500
    2SOL  HW1      5   0.172   0.043   0.554
    2SOL  HW2      6   0.167   0.088   0.410
    3SOL  OW       7   0.175   0.177   0.739
    3SOL  HW1      8   0.253   0.125   0.719
    3SOL  HW2      9   0.164   0.235   0.665
    4SOL  OW      10   0.150   0.144   1.111
    4SOL  HW1     11   0.150   0.048   1.114
    4SOL  HW2     12   0.158   0.165   1.018
    5SOL  OW      13   0.165   0.180   1.380
    5SOL  HW1     14   0.223   0.214   1.449
    5SOL  HW2     15   0.195   0.090   1.366
    6SOL  OW      16   0.132   0.158   1.657
    6SOL  HW1     17   0.115   0.064   1.664
    6SOL  HW2     18   0.076   0.187   1.585
    7SOL  OW      19   0.180   0.164   2.021
    7SOL  HW1     20   0.178   0.144   2.114
    7SOL  HW2     21   0.189   0.079   1.978
    8SOL  OW      22   0.142   0.192   2.339
    8SOL  HW1     23   0.065   0.218   2.289
    8SOL  HW2     24   0.215   0.238   2.298
    9SOL  OW      25   0.176   0.129   2.613
    9SOL  HW1     26   0.241   0.128   2.543
    9SOL  HW2     27   0.193   0.049   2.662
   10SOL  OW      28   0.117   0.126   2.938
   10SOL  HW1     29   0.137   0.153   2.848
   10SOL  HW2     30   0.201   0.096   2.973
   11SOL  OW      31   0.173   0.191   3.217
   11SOL  HW1     32   0.222   0.130   3.162
   11SOL  HW2     33   0.137   0.255   3.155
   12SOL  OW      34   0.143   0.151   3.514
   12SOL  HW1     35   0.102   0.066   3.528
   12SOL  HW2     36   0.190   0.170   3.595
   13SOL  OW      37   0.124   0.152   3.824
   13SOL  HW1     38   0.143   0.167   3.732
   13SOL  HW2     39   0.059   0.218   3.847
   14SOL  OW      40   0.167   0.457   0.180
   14SOL  HW1     41   0.159   0.399   0.104
   14SOL  HW2     42   0.126   0.539   0.154
   15SOL  OW      43   0.170   0.447   0.488
   15SOL  HW1     44   0.174   0.452   0.584
   15SOL  HW2     45   0.121   0.524   0.461
   16SOL  OW      46   0.178   0.453   0.752
   16SOL  HW1     47   0.251   0.407   0.709
   16SOL  HW2     48   0.180   0.421   0.843
   17SOL  OW      49   0.168   0.433   1.053
   17SOL  HW1     50   0.113   0.417   0.976
   17SOL  HW2     51   0.247   0.475   1.018
   18SOL  OW      52   0.114   0.484   1.398
   18SOL  HW1     53   0.137   0.424   1.327
   18SOL  HW2     54   0.199   0.515   1.431
   19SOL  OW      55   0.170   0.484   1.689
   19SOL  HW1     56   0.255   0.495   1.645
   19SOL  HW2     57   0.121   0.424   1.633
   20SOL  OW      58   0.159   0.433   1.969
   20SOL  HW1     59   0.109   0.427   1.888
   20SOL  HW2     60   0.155   0.345   2.006
   21SOL  OW      61   0.167   0.459   2.313
   21SOL  HW1     62   0.089   0.405   2.322
   21SOL  HW2     63   0.238   0.403   2.344
   22SOL  OW      64   0.175   0.472   2.620
   22SOL  HW1     65   0.230   0.526   2.562
   22SOL  HW2     66   0.105   0.531   2.648
   23SOL  OW      67   0.159   0.446   2.886
   23SOL  HW1     68   0.086   0.436   2.948
   23SOL  HW2     69   0.206   0.363   2.891
   24SOL  OW      70   0.149   0.439   3.223
   24SOL  HW1     71   0.119   0.479   3.305
   24SOL  HW2     72   0.244   0.436   3.232
   25SOL  OW      73   0.182   0.440   3.503
   25SOL  HW1     74   0.161   0.445   3.410
   25SOL  HW2     75   0.121   0.376   3.539
   26SOL  OW      76   0.136   0.445   3.859
   26SOL  HW1     77   0.088   0.398   3.927
   26SOL  HW2     78   0.075   0.451   3.786
   27SOL  OW      79   0.158   0.792   0.167
   27SOL  HW1     80   0.078   0.777   0.217
   27SOL  HW2     81   0.145   0.743   0.086
   28SOL  OW      82   0.146   0.794   0.435
   28SOL  HW1     83   0.174   0.845   0.359
   28SOL  HW2     84   0.111   0.859   0.496
   29SOL  OW      85   0.116   0.736   0.787
   29SOL  HW1     86   0.193   0.747   0.732
   29SOL  HW2     87   0.126   0.650   0.827
   30SOL  OW      88   0.151   0.742   1.077
   30SOL  HW1     89   0.123   0.682   1.008
   30SOL  HW2     90   0.204   0.689   1.136
   31SOL  OW      91   0.126   0.785   1.380
   31SOL  HW1     92   0.106   0.709   1.325
   31SOL  HW2     93   0.071   0.773   1.458
   32SOL  OW      94   0.144   0.753   1.703
   32SOL  HW1     95   0.204   0.815   1.660
   32SOL  HW2     96   0.195   0.673   1.711
   33SOL  OW      97   0.143   0.736   1.969
   33SOL  HW1     98   0.049   0.742   1.988
   33SOL  HW2     99   0.160   0.642   1.965
   34SOL  OW     100   0.191   0.802   2.324
   34SOL  HW1    101   0.130   0.806   2.250
   34SOL  HW2    102   0.268   0.850   2.294
   35SOL  OW     103   0.135   0.807   2.638
   35SOL  HW1    104   0.070   0.792   2.707
   35SOL  HW2    105   0.094   0.773   2.558
   36SOL  OW     106   0.171   0.765   2.905
   36SOL  HW1    107   0.164   0.744   2.812
   36SOL  HW2    108   0.243   0.828   2.910
   37SOL  OW     109   0.122   0.801   3.227
   37SOL  HW1    110   0.165   0.840   3.151
   37SOL  HW2    111   0.044   0.855   3.241
   38SOL  OW     112   0.130   0.754   3.545
   38SOL  HW1    113   0.051   0.711   3.513
   38SOL  HW2    114   0.199   0.721   3.488
   39SOL  OW     115   0.128   0.798   3.867
   39SOL  HW1    116   0.203   0.829   3.817
   39SOL  HW2    117   0.056   0.854   3.839
   40SOL  OW     118   0.171   1.071   0.164
   40SOL  HW1    119   0.085   1.112   0.169
   40SOL  HW2    120   0.205   1.098   0.078
   41SOL  OW     121   0.161   1.089   0.428
   41SOL  HW1    122   0.102   1.109   0.355
   41SOL  HW2    123   0.134   1.002   0.457
   42SOL  OW     124   0.147   1.040   0.769
   42SOL  HW1    125   0.083   1.110   0.753
   42SOL  HW2    126   0.150   1.031   0.864
   43SOL  OW     127   0.140   1.048   1.045
   43SOL  HW1    128   0.059   1.082   1.083
   43SOL  HW2    129   0.126   0.954   1.037
   44SOL  OW     130   0.161   1.051   1.419
   44SOL  HW1    131   0.253   1.061   1.440
   44SOL  HW2    132   0.139   1.129   1.368
   45SOL  OW     133   0.160   1.065   1.700
   45SOL  HW1    134   0.168   0.978   1.739
   45SOL  HW2    135   0.237   1.072   1.643
   46SOL  OW     136   0.116   1.114   1.999
   46SOL  HW1    137   0.120   1.096   1.905
   46SOL  HW2    138   0.133   1.029   2.040
   47SOL  OW     139   0.176   1.044   2.307
   47SOL  HW1    140   0.213   1.130   2.327
   47SOL  HW2    141   0.096   1.039   2.358
   48SOL  OW     142   0.153   1.112   2.621
   48SOL  HW1    143   0.174   1.050   2.691
   48SOL  HW2    144   0.057   1.116   2.620
   49SOL  OW     145   0.152   1.058   2.910
   49SOL  HW1    146   0.094   1.095   2.842
   49SOL  HW2    147   0.205   0.994   2.863
   50SOL  OW     148   0.155   1.072   3.192
   50SOL  HW1    149   0.100   1.121   3.131
   50SOL  HW2    150   0.104   0.994   3.214
   51SOL  OW     151   0.180   1.109   3.510
   51SOL  HW1    152   0.155   1.187   3.460
   51SOL  HW2    153   0.248   1.067   3.456
   52SOL  OW     154   0.158   1.046   3.860
   52SOL  HW1    155   0.108   1.016   3.784
   52SOL  HW2    156   0.248   1.017   3.842
   53SOL  OW     157   0.136   1.397   0.172
   53SOL  HW1    158   0.155   1.453   0.096
   53SOL  HW2    159   0.099   1.457   0.237
   54SOL  OW     160   0.175   1.353   0.495
   54SOL  HW1    161   0.190   1.337   0.402
   54SOL  HW2    162   0.172   1.266   0.534
   55SOL  OW     163   0.132   1.348   0.774
   55SOL  HW1    164   0.154   1.259   0.803
   55SOL  HW2    165   0.048   1.338   0.730
   56SOL  OW     166   0.144   1.411   1.102
   56SOL  HW1    167   0.117   1.471   1.172
   56SOL  HW2    168   0.099   1.329   1.122
   57SOL  OW     169   0.139   1.421   1.368
   57SOL  HW1    170   0.123   1.358   1.298
   57SOL  HW2    171   0.203   1.482   1.331
   58SOL  OW     172   0.155   1.365   1.727
   58SOL  HW1    173   0.113   1.356   1.813
   58SOL  HW2    174   0.139   1.282   1.684
   59SOL  OW     175   0.127   1.348   1.995
   59SOL  HW1    176   0.145   1.429   2.042
   59SOL  HW2    177   0.040   1.322   2.025
   60SOL  OW     178   0.193   1.416   2.328
   60SOL  HW1    179   0.111   1.426   2.375
   60SOL  HW2    180   0.172   1.358   2.255
   61SOL  OW     181   0.185   1.416   2.617
   61SOL  HW1    182   0.091   1.429   2.602
   61SOL  HW2    183   0.221   1.505   2.624
   62SOL  OW     184   0.139   1.406   2.936
   62SOL  HW1    185   0.192   1.480   2.968
   62SOL  HW2    186   0.075   1.446   2.877
   63SOL  OW     187   0.144   1.352   3.251
   63SOL  HW1    188   0.146   1.389   3.162
   63SOL  HW2    189   0.108   1.423   3.305
   64SOL  OW     190   0.135   1.420   3.518
   64SOL  HW1    191   0.207   1.414   3.455
   64SOL  HW2    192   0.141   1.508   3.554
   65SOL  OW     193   0.124   1.411   3.818
   65SOL  HW1    194   0.075   1.331   3.834
   65SOL  HW2    195   0.214   1.388   3.839
   66SOL  OW     196   0.128   1.700   0.184
   66SOL  HW1    197   0.149   1.783   0.142
   66SOL  HW2    198   0.138   1.718   0.277
   67SOL  OW     199   0.130   1.677   0.484
   67SOL  HW1    200   0.049   1.664   0.534
   67SOL  HW2    201   0.117   1.625   0.404
   68SOL  OW     202   0.192   1.692   0.741
   68SOL  HW1    203   0.138   1.757   0.695
   68SOL  HW2    204   0.133   1.653   0.805
   69SOL  OW     205   0.115   1.671   1.047
   69SOL  HW1    206   0.085   1.671   1.138
   69SOL  HW2    207   0.111   1.762   1.020
   70SOL  OW     208   0.168   1.662   1.385
   70SOL  HW1    209   0.203   1.751   1.375
   70SOL  HW2    210   0.104   1.654   1.315
   71SOL  OW     211   0.169   1.699   1.668
   71SOL  HW1    212   0.147   1.777   1.719
   71SOL  HW2    213   0.091   1.681   1.616
   72SOL  OW     214   0.178   1.710   2.019
   72SOL  HW1    215   0.085   1.717   2.041
   72SOL  HW2    216   0.206   1.628   2.062
   73SOL  OW     217   0.124   1.662   2.342
   73SOL  HW1    218   0.127   1.612   2.260
   73SOL  HW2    219   0.086   1.602   2.406
   74SOL  OW     220   0.146   1.676   2.614
   74SOL  HW1    221   0.196   1.602   2.648
   74SOL  HW2    222   0.187   1.698   2.531
   75SOL  OW     223   0.167   1.729   2.906
   75SOL  HW1    224   0.224   1.699   2.977
   75SOL  HW2    225   0.182   1.666   2.835
   76SOL  OW     226   0.188   1.654   3.235
   76SOL  HW1    227   0.093   1.666   3.240
   76SOL  HW2    228   0.214   1.703   3.157
   77SOL  OW     229   0.165   1.661   3.510
   77SOL  HW1    230   0.220   1.584   3.500
   77SOL  HW2    231   0.087   1.629   3.556
   78SOL  OW     232   0.147   1.730   3.854
   78SOL  HW1    233   0.214   1.715   3.787
   78SOL  HW2    234   0.083   1.787   3.811
   79SOL  OW     235   0.188   2.024   0.151
   79SOL  HW1    236   0.158   1.968   0.080
   79SOL  HW2    237   0.209   2.108   0.108
   80SOL  OW     238   0.177   1.961   0.430
   80SOL  HW1    239   0.198   2.049   0.461
   80SOL  HW2    240   0.086   1.948   0.456
   81SOL  OW     241   0.180   2.024   0.748
   81SOL  HW1    242   0.095   2.006   0.709
   81SOL  HW2    243   0.196   2.116   0.730
   82SOL  OW     244   0.156   2.008   1.106
   82SOL  HW1    245   0.134   2.099   1.086
   82SOL  HW2    246   0.229   1.988   1.048
   83SOL  OW     247   0.162   1.993   1.375
   83SOL  HW1    248   0.078   1.987   1.419
   83SOL  HW2    249   0.224   2.019   1.443
   84SOL  OW     250   0.148   2.012   1.722
   84SOL  HW1    251   0.071   2.049   1.765
   84SOL  HW2    252   0.203   1.982   1.794
   85SOL  OW     253   0.150   1.980   1.979
   85SOL  HW1    254   0.157   2.063   2.026
   85SOL  HW2    255   0.240   1.958   1.955
   86SOL  OW     256   0.174   2.025   2.276
   86SOL  HW1    257   0.246   2.035   2.338
   86SOL  HW2    258   0.215   1.995   2.195
   87SOL  OW     259   0.119   2.008   2.587
   87SOL  HW1    260   0.083   2.067   2.652
   87SOL  HW2    261   0.151   1.933   2.638
   88SOL  OW     262   0.180   1.985   2.895
   88SOL  HW1    263   0.101   1.955   2.941
   88SOL  HW2    264   0.147   2.044   2.827
   89SOL  OW     265   0.188   1.973   3.214
   89SOL  HW1    266   0.279   1.987   3.239
   89SOL  HW2    267   0.181   2.011   3.126
   90SOL  OW     268   0.126   1.969   3.500
   90SOL  HW1    269   0.222   1.964   3.502
   90SOL  HW2    270   0.103   1.959   3.408
   91SOL  OW     271   0.118   1.974   3.810
   91SOL  HW1    272   0.040   1.919   3.800
   91SOL  HW2    273   0.160   1.974   3.724
   92SOL  OW     274   0.161   2.322   0.145
   92SOL  HW1    275   0.226   2.388   0.120
   92SOL  HW2    276   0.077   2.366   0.136
   93SOL  OW     277   0.139   2.308   0.492
   93SOL  HW1    278   0.090   2.227   0.481
   93SOL  HW2    279   0.219   2.281   0.537
   94SOL  OW     280   0.182   2.271   0.744
   94SOL  HW1    281   0.162   2.357   0.780
   94SOL  HW2    282   0.096   2.234   0.723
   95SOL  OW     283   0.133   2.288   1.083
   95SOL  HW1    284   0.217   2.255   1.051
   95SOL  HW2    285   0.128   2.378   1.051
   96SOL  OW     286   0.147   2.272   1.375
   96SOL  HW1    287   0.120   2.235   1.290
   96SOL  HW2    288   0.193   2.200   1.418
   97SOL  OW     289   0.156   2.276   1.719
   97SOL  HW1    290   0.106   2.268   1.638
   97SOL  HW2    291   0.242   2.239   1.698
   98SOL  OW     292   0.118   2.342   1.968
   98SOL  HW1    293   0.101   2.435   1.980
   98SOL  HW2    294   0.191   2.323   2.026
   99SOL  OW     295   0.181   2.340   2.346
   99SOL  HW1    296   0.156   2.275   2.412
   99SOL  HW2    297   0.175   2.293   2.263
  100SOL  OW     298   0.178   2.330   2.627
  100SOL  HW1    299   0.176   2.419   2.591
  100SOL  HW2    300   0.109   2.329   2.693
  101SOL  OW     301   0.176   2.278   2.926
  101SOL  HW1    302   0.251   2.336   2.911
  101SOL  HW2    303   0.153   2.246   2.839
  102SOL  OW     304   0.155   2.336   3.228
  102SOL  HW1    305   0.204   2.385   3.161
  102SOL  HW2    306   0.170   2.244   3.206
  103SOL  OW     307   0.145   2.319   3.520
  103SOL  HW1    308   0.221   2.263   3.508
  103SOL  HW2    309   0.078   2.260   3.556
  104SOL  OW     310   0.125   2.306   3.840
  104SOL  HW1    311   0.189   2.326   3.771
  104SOL  HW2    312   0.151   2.360   3.914
  105SOL  OW     313   0.132   2.605   0.143
  105SOL  HW1    314   0.170   2.656   0.072
  105SOL  HW2    315   0.201   2.602   0.210
  106SOL  OW     316   0.140   2.606   0.476
  106SOL  HW1    317   0.088   2.532   0.508
  106SOL  HW2    318   0.100   2.682   0.517
  107SOL  OW     319   0.138   2.651   0.803
  107SOL  HW1    320   0.233   2.658   0.792
  107SOL  HW2    321   0.117   2.715   0.871
  108SOL  OW     322   0.152   2.602   1.080
  108SOL  HW1    323   0.076   2.646   1.041
  108SOL  HW2    324   0.139   2.609   1.174
  109SOL  OW     325   0.182   2.628   1.409
  109SOL  HW1    326   0.125   2.628   1.332
  109SOL  HW2    327   0.165   2.543   1.451
  110SOL  OW     328   0.156   2.626   1.675
  110SOL  HW1    329   0.227   2.640   1.612
  110SOL  HW2    330   0.199   2.634   1.761
  111SOL  OW     331   0.173   2.592   2.016
  111SOL  HW1    332   0.098   2.650   2.002
  111SOL  HW2    333   0.135   2.504   2.010
  112SOL  OW     334   0.183   2.586   2.317
  112SOL  HW1    335   0.266   2.629   2.335
  112SOL  HW2    336   0.175   2.587   2.221
  113SOL  OW     337   0.121   2.633   2.582
  113SOL  HW1    338   0.159   2.552   2.549
  113SOL  HW2    339   0.027   2.623   2.571
  114SOL  OW     340   0.189   2.586   2.960
  114SOL  HW1    341   0.253   2.515   2.956
  114SOL  HW2    342   0.230   2.652   3.016
  115SOL  OW     343   0.178   2.623   3.253
  115SOL  HW1    344   0.112   2.667   3.200
  115SOL  HW2    345   0.138   2.615   3.340
  116SOL  OW     346   0.177   2.651   3.519
  116SOL  HW1    347   0.204   2.568   3.557
  116SOL  HW2    348   0.086   2.638   3.495
  117SOL  OW     349   0.161   2.583   3.855
  117SOL  HW1    350   0.223   2.515   3.882
  117SOL  HW2    351   0.205   2.665   3.877
  118SOL  OW     352   0.128   2.928   0.160
  118SOL  HW1    353   0.167   2.991   0.221
  118SOL  HW2    354   0.054   2.976   0.121
  119SOL  OW     355   0.151   2.925   0.483
  119SOL  HW1    356   0.064   2.929   0.443
  119SOL  HW2    357   0.134   2.905   0.575
  120SOL  OW     358   0.178   2.922   0.777
  120SOL  HW1    359   0.123   2.999   0.796
  120SOL  HW2    360   0.161   2.862   0.850
  121SOL  OW     361   0.188   2.893   1.046
  121SOL  HW1    362   0.139   2.908   0.966
  121SOL  HW2    363   0.222   2.803   1.038
  122SOL  OW     364   0.121   2.936   1.378
  122SOL  HW1    365   0.064   2.966   1.449
  122SOL  HW2    366   0.063   2.929   1.302
  123SOL  OW     367   0.176   2.937   1.679
  123SOL  HW1    368   0.101   2.960   1.624
  123SOL  HW2    369   0.215   3.021   1.703
  124SOL  OW     370   0.186   2.944   1.982
  124SOL  HW1    371   0.245   2.905   1.917
  124SOL  HW2    372   0.197   3.038   1.970
  125SOL  OW     373   0.143   2.908   2.280
  125SOL  HW1    374   0.204   2.874   2.215
  125SOL  HW2    375   0.124   2.997   2.251
  126SOL  OW     376   0.126   2.958   2.610
  126SOL  HW1    377   0.182   2.988   2.539
  126SOL  HW2    378   0.048   3.014   2.605
  127SOL  OW     379   0.145   2.941   2.927
  127SOL  HW1    380   0.182   2.977   3.008
  127SOL  HW2    381   0.067   2.995   2.911
  128SOL  OW     382   0.189   2.946   3.229
  128SOL  HW1    383   0.239   2.875   3.270
  128SOL  HW2    384   0.189   3.016   3.294
  129SOL  OW     385   0.144   2.962   3.556
  129SOL  HW1    386   0.168   2.967   3.648
  129SOL  HW2    387   0.135   2.868   3.539
  130SOL  OW     388   0.190   2.893   3.874
  130SOL  HW1    389   0.149   2.807   3.885
  130SOL  HW2    390   0.127   2.954   3.912
  131SOL  OW     391   0.165   3.201   0.161
  131SOL  HW1    392   0.169   3.181   0.067
  131SOL  HW2    393   0.139   3.118   0.202
  132SOL  OW     394   0.169   3.192   0.458
  132SOL  HW1    395   0.256   3.163   0.431
  132SOL  HW2    396   0.185   3.267   0.515
  133SOL  OW     397   0.180   3.214   0.766
  133SOL  HW1    398   0.258   3.205   0.712
  133SOL  HW2    399   0.107   3.208   0.704
  134SOL  OW     400   0.149   3.215   1.110
  134SOL  HW1    401   0.215   3.239   1.045
  134SOL  HW2    402   0.157   3.120   1.119
  135SOL  OW     403   0.176   3.200   1.424
  135SOL  HW1    404   0.127   3.280   1.407
  135SOL  HW2    405   0.215   3.213   1.511
  136SOL  OW     406   0.184   3.213   1.719
  136SOL  HW1    407   0.135   3.168   1.651
  136SOL  HW2    408   0.120   3.269   1.762
  137SOL  OW     409   0.122   3.271   2.013
  137SOL  HW1    410   0.047   3.213   2.003
  137SOL  HW2    411   0.096   3.334   2.080
  138SOL  OW     412   0.166   3.198   2.339
  138SOL  HW1    413   0.083   3.214   2.295
  138SOL  HW2    414   0.181   3.277   2.391
  139SOL  OW     415   0.116   3.210   2.587
  139SOL  HW1    416   0.056   3.259   2.643
  139SOL  HW2    417   0.202   3.249   2.604
  140SOL  OW     418   0.176   3.207   2.956
  140SOL  HW1    419   0.244   3.151   2.993
  140SOL  HW2    420   0.109   3.146   2.926
  141SOL  OW     421   0.166   3.194   3.191
  141SOL  HW1    422   0.161   3.260   3.122
  141SOL  HW2    423   0.169   3.110   3.144
  142SOL  OW     424   0.118   3.239   3.563
  142SOL  HW1    425   0.088   3.185   3.636
  142SOL  HW2    426   0.189   3.292   3.599
  143SOL  OW     427   0.133   3.259   3.811
  143SOL  HW1    428   0.062   3.251   3.747
  143SOL  HW2    429   0.211   3.229   3.763
  144SOL  OW     430   0.178   3.573   0.176
  144SOL  HW1    431   0.142   3.621   0.250
  144SOL  HW2    432   0.211   3.491   0.214
  145SOL  OW     433   0.170   3.565   0.425
  145SOL  HW1    434   0.247   3.584   0.372
  145SOL  HW2    435   0.100   3.617   0.384
  146SOL  OW     436   0.130   3.508   0.770
  146SOL  HW1    437   0.161   3.564   0.698
  146SOL  HW2    438   0.039   3.536   0.783
  147SOL  OW     439   0.173   3.549   1.105
  147SOL  HW1    440   0.135   3.480   1.051
  147SOL  HW2    441   0.207   3.612   1.042
  148SOL  OW     442   0.126   3.557   1.360
  148SOL  HW1    443   0.221   3.572   1.359
  148SOL  HW2    444   0.107   3.523   1.273
  149SOL  OW     445   0.136   3.555   1.731
  149SOL  HW1    446   0.157   3.542   1.638
  149SOL  HW2    447   0.064   3.619   1.730
  150SOL  OW     448   0.163   3.503   2.009
  150SOL  HW1    449   0.077   3.465   2.026
  150SOL  HW2    450   0.209   3.495   2.093
  151SOL  OW     451   0.117   3.569   2.324
  151SOL  HW1    452   0.210   3.546   2.318
  151SOL  HW2    453   0.086   3.571   2.234
  152SOL  OW     454   0.128   3.506   2.590
  152SOL  HW1    455   0.079   3.543   2.664
  152SOL  HW2    456   0.165   3.425   2.625
  153SOL  OW     457   0.192   3.535   2.946
  153SOL  HW1    458   0.252   3.544   3.020
  153SOL  HW2    459   0.237   3.580   2.874
  154SOL  OW     460   0.165   3.544   3.202
  154SOL  HW1    461   0.104   3.472   3.216
  154SOL  HW2    462   0.214   3.520   3.124
  155SOL  OW     463   0.190   3.523   3.545
  155SOL  HW1    464   0.273   3.568   3.534
  155SOL  HW2    465   0.139   3.547   3.467
  156SOL  OW     466   0.170   3.550   3.881
  156SOL  HW1    467   0.119   3.593   3.813
  156SOL  HW2    468   0.157   3.457   3.866
  157SOL  OW     469   0.126   3.847   0.146
  157SOL  HW1    470   0.089   3.929   0.112
  157SOL  HW2    471   0.211   3.839   0.103
  158SOL  OW     472   0.152   3.816   0.432
  158SOL  HW1    473   0.233   3.773   0.406
  158SOL  HW2    474   0.126   3.867   0.355
  159SOL  OW     475   0.136   3.831   0.763
  159SOL  HW1    476   0.104   3.741   0.767
  159SOL  HW2    477   0.071   3.882   0.811
  160SOL  OW     478   0.163   3.857   1.070
  160SOL  HW1    479   0.233   3.912   1.035
  160SOL  HW2    480   0.140   3.897   1.154
  161SOL  OW     481   0.147   3.824   1.392
  161SOL  HW1    482   0.179   3.741   1.356
  161SOL  HW2    483   0.220   3.884   1.382
  162SOL  OW     484   0.139   3.809   1.686
  162SOL  HW1    485   0.081   3.780   1.756
  162SOL  HW2    486   0.086   3.804   1.607
  163SOL  OW     487   0.152   3.824   2.006
  163SOL  HW1    488   0.224   3.800   1.948
  163SOL  HW2    489   0.077   3.774   1.974
  164SOL  OW     490   0.159   3.862   2.320
  164SOL  HW1    491   0.081   3.809   2.306
  164SOL  HW2    492   0.157   3.884   2.413
  165SOL  OW     493   0.166   3.831   2.638
  165SOL  HW1    494   0.241   3.815   2.581
  165SOL  HW2    495   0.200   3.819   2.727
  166SOL  OW     496   0.158   3.841   2.933
  166SOL  HW1    497   0.073   3.811   2.968
  166SOL  HW2    498   0.138   3.873   2.845
  167SOL  OW     499   0.143   3.847   3.250
  167SOL  HW1    500   0.225   3.814   3.214
  167SOL  HW2    501   0.164   3.935   3.281
  168SOL  OW     502   0.185   3.880   3.539
  168SOL  HW1    503   0.094   3.864   3.513
  168SOL  HW2    504   0.191   3.844   3.627
  169SOL  OW     505   0.155   3.870   3.831
  169SOL  HW1    506   0.220   3.837   3.894
  169SOL  HW2    507   0.208   3.913   3.764
  170SOL  OW     508   0.489   0.153   0.123
  170SOL  HW1    509   0.559   0.106   0.079
  170SOL  HW2    510   0.442   0.198   0.053
  171SOL  OW     511   0.427   0.181   0.426
  171SOL  HW1    512   0.478   0.253   0.463
  171SOL  HW2    513   0.492   0.114   0.406
  172SOL  OW     514   0.444   0.141   0.743
  172SOL  HW1    515   0.421   0.089   0.665
  172SOL  HW2    516   0.515   0.198   0.714
  173SOL  OW     517   0.447   0.173   1.038
  173SOL  HW1    518   0.374   0.223   1.076
  173SOL  HW2    519   0.473   0.225   0.962
  174SOL  OW     520   0.488   0.182   1.374
  174SOL  HW1    521   0.438   0.124   1.317
  174SOL  HW2    522   0.507   0.129   1.452
  175SOL  OW     523   0.434   0.162   1.662
  175SOL  HW1    524   0.360   0.223   1.662
  175SOL  HW2    525   0.489   0.192   1.734
  176SOL  OW     526   0.451   0.191   2.040
  176SOL  HW1    527   0.461   0.216   2.131
  176SOL  HW2    528   0.513   0.245   1.992
  177SOL  OW     529   0.483   0.139   2.323
  177SOL  HW1    530   0.392   0.111   2.314
  177SOL  HW2    531   0.481   0.233   2.308
  178SOL  OW     532   0.478   0.145   2.627
  178SOL  HW1    533   0.463   0.164   2.719
  178SOL  HW2    534   0.471   0.050   2.620
  179SOL  OW     535   0.422   0.131   2.925
  179SOL  HW1    536   0.348   0.070   2.922
  179SOL  HW2    537   0.495   0.082   2.886
  180SOL  OW     538   0.435   0.127   3.258
  180SOL  HW1    539   0.341   0.148   3.256
  180SOL  HW2    540   0.441   0.042   3.213
  181SOL  OW     541   0.501   0.158   3.566
  181SOL  HW1    542   0.478   0.249   3.546
  181SOL  HW2    543   0.455   0.107   3.498
  182SOL  OW     544   0.501   0.125   3.842
  182SOL  HW1    545   0.515   0.184   3.916
  182SOL  HW2    546   0.589   0.106   3.809
  183SOL  OW     547   0.453   0.428   0.174
  183SOL  HW1    548   0.484   0.467   0.256
  183SOL  HW2    549   0.528   0.377   0.142
  184SOL  OW     550   0.456   0.459   0.434
  184SOL  HW1    551   0.490   0.538   0.390
  184SOL  HW2    552   0.473   0.474   0.527
  185SOL  OW     553   0.436   0.494   0.733
  185SOL  HW1    554   0.479   0.409   0.721
  185SOL  HW2    555   0.440   0.510   0.827
  186SOL  OW     556   0.440   0.445   1.076
  186SOL  HW1    557   0.521   0.484   1.043
  186SOL  HW2    558   0.443   0.459   1.171
  187SOL  OW     559   0.468   0.461   1.351
  187SOL  HW1    560   0.435   0.519   1.283
  187SOL  HW2    561   0.433   0.496   1.433
  188SOL  OW     562   0.441   0.489   1.703
  188SOL  HW1    563   0.468   0.420   1.643
  188SOL  HW2    564   0.414   0.442   1.782
  189SOL  OW     565   0.473   0.475   2.021
  189SOL  HW1    566   0.415   0.405   2.048
  189SOL  HW2    567   0.450   0.549   2.078
  190SOL  OW     568   0.426   0.451   2.311
  190SOL  HW1    569   0.420   0.384   2.243
  190SOL  HW2    570   0.514   0.487   2.301
  191SOL  OW     571   0.449   0.489   2.614
  191SOL  HW1    572   0.449   0.561   2.551
  191SOL  HW2    573   0.485   0.527   2.694
  192SOL  OW     574   0.483   0.490   2.923
  192SOL  HW1    575   0.450   0.455   2.841
  192SOL  HW2    576   0.468   0.420   2.987
  193SOL  OW     577   0.494   0.469   3.259
  193SOL  HW1    578   0.573   0.520   3.273
  193SOL  HW2    579   0.526   0.378   3.253
  194SOL  OW     580   0.449   0.461   3.541
  194SOL  HW1    581   0.454   0.527   3.471
  194SOL  HW2    582   0.441   0.513   3.621
  195SOL  OW     583   0.430   0.453   3.880
  195SOL  HW1    584   0.339   0.426   3.866
  195SOL  HW2    585   0.430   0.547   3.860
  196SOL  OW     586   0.472   0.743   0.141
  196SOL  HW1    587   0.557   0.748   0.185
  196SOL  HW2    588   0.412   0.710   0.208
  197SOL  OW     589   0.437   0.731   0.496
  197SOL  HW1    590   0.527   0.699   0.493
  197SOL  HW2    591   0.438   0.810   0.442
  198SOL  OW     592   0.457   0.754   0.777
  198SOL  HW1    593   0.372   0.714   0.790
  198SOL  HW2    594   0.439   0.835   0.731
  199SOL  OW     595   0.422   0.751   1.093
  199SOL  HW1    596   0.498   0.800   1.124
  199SOL  HW2    597   0.405   0.787   1.006
  200SOL  OW     598   0.472   0.808   1.394
  200SOL  HW1    599   0.484   0.713   1.401
  200SOL  HW2    600   0.555   0.845   1.425
  201SOL  OW     601   0.460   0.790   1.725
  201SOL  HW1    602   0.527   0.723   1.734
  201SOL  HW2    603   0.508   0.873   1.727
  202SOL  OW     604   0.479   0.806   2.023
  202SOL  HW1    605   0.519   0.764   2.099
  202SOL  HW2    606   0.393   0.834   2.053
  203SOL  OW     607   0.491   0.738   2.326
  203SOL  HW1    608   0.416   0.695   2.286
  203SOL  HW2    609   0.495   0.702   2.415
  204SOL  OW     610   0.457   0.773   2.628
  204SOL  HW1    611   0.444   0.867   2.612
  204SOL  HW2    612   0.549   0.758   2.607
  205SOL  OW     613   0.499   0.808   2.906
  205SOL  HW1    614   0.432   0.767   2.961
  205SOL  HW2    615   0.553   0.735   2.876
  206SOL  OW     616   0.480   0.789   3.218
  206SOL  HW1    617   0.424   0.861   3.191
  206SOL  HW2    618   0.524   0.762   3.138
  207SOL  OW     619   0.431   0.733   3.561
  207SOL  HW1    620   0.377   0.764   3.489
  207SOL  HW2    621   0.404   0.785   3.636
  208SOL  OW     622   0.461   0.808   3.843
  208SOL  HW1    623   0.384   0.821   3.787
  208SOL  HW2    624   0.441   0.857   3.923
  209SOL  OW     625   0.500   1.070   0.177
  209SOL  HW1    626   0.519   0.988   0.131
  209SOL  HW2    627   0.525   1.053   0.268
  210SOL  OW     628   0.428   1.081   0.486
  210SOL  HW1    629   0.516   1.113   0.509
  210SOL  HW2    630   0.433   1.065   0.392
  211SOL  OW     631   0.496   1.103   0.732
  211SOL  HW1    632   0.564   1.132   0.792
  211SOL  HW2    633   0.538   1.036   0.678
  212SOL  OW     634   0.451   1.041   1.046
  212SOL  HW1    635   0.372   1.003   1.007
  212SOL  HW2    636   0.470   1.118   0.992
  213SOL  OW     637   0.476   1.094   1.407
  213SOL  HW1    638   0.483   1.181   1.366
  213SOL  HW2    639   0.552   1.046   1.375
  214SOL  OW     640   0.491   1.096   1.716
  214SOL  HW1    641   0.566   1.148   1.743
  214SOL  HW2    642   0.507   1.076   1.624
  215SOL  OW     643   0.425   1.056   2.010
  215SOL  HW1    644   0.467   1.118   1.950
  215SOL  HW2    645   0.466   1.074   2.095
  216SOL  OW     646   0.490   1.037   2.309
  216SOL  HW1    647   0.581   1.017   2.332
  216SOL  HW2    648   0.485   1.133   2.315
  217SOL  OW     649   0.476   1.039   2.607
  217SOL  HW1    650   0.426   1.027   2.688
  217SOL  HW2    651   0.430   0.985   2.543
  218SOL  OW     652   0.493   1.091   2.902
  218SOL  HW1    653   0.481   1.171   2.952
  218SOL  HW2    654   0.419   1.036   2.927
  219SOL  OW     655   0.490   1.065   3.259
  219SOL  HW1    656   0.516   1.079   3.350
  219SOL  HW2    657   0.458   0.975   3.257
  220SOL  OW     658   0.445   1.084   3.530
  220SOL  HW1    659   0.369   1.142   3.526
  220SOL  HW2    660   0.410   1.000   3.558
  221SOL  OW     661   0.444   1.108   3.821
  221SOL  HW1    662   0.495   1.188   3.828
  221SOL  HW2    663   0.385   1.110   3.897
  222SOL  OW     664   0.428   1.372   0.171
  222SOL  HW1    665   0.487   1.435   0.129
  222SOL  HW2    666   0.358   1.358   0.108
  223SOL  OW     667   0.486   1.425   0.445
  223SOL  HW1    668   0.523   1.349   0.492
  223SOL  HW2    669   0.391   1.411   0.448
  224SOL  OW     670   0.454   1.356   0.775
  224SOL  HW1    671   0.361   1.360   0.797
  224SOL  HW2    672   0.488   1.285   0.830
  225SOL  OW     673   0.501   1.401   1.085
  225SOL  HW1    674   0.580   1.356   1.117
  225SOL  HW2    675   0.439   1.330   1.067
  226SOL  OW     676   0.453   1.418   1.384
  226SOL  HW1    677   0.486   1.505   1.361
  226SOL  HW2    678   0.523   1.379   1.438
  227SOL  OW     679   0.432   1.374   1.658
  227SOL  HW1    680   0.443   1.467   1.674
  227SOL  HW2    681   0.484   1.331   1.726
  228SOL  OW     682   0.438   1.346   1.996
  228SOL  HW1    683   0.421   1.332   1.903
  228SOL  HW2    684   0.468   1.261   2.028
  229SOL  OW     685   0.472   1.372   2.301
  229SOL  HW1    686   0.427   1.412   2.227
  229SOL  HW2    687   0.403   1.327   2.350
  230SOL  OW     688   0.498   1.405   2.619
  230SOL  HW1    689   0.453   1.481   2.582
  230SOL  HW2    690   0.477   1.407   2.712
  231SOL  OW     691   0.444   1.416   2.902
  231SOL  HW1    692   0.530   1.373   2.903
  231SOL  HW2    693   0.403   1.386   2.821
  232SOL  OW     694   0.448   1.417   3.233
  232SOL  HW1    695   0.430   1.324   3.241
  232SOL  HW2    696   0.438   1.451   3.322
  233SOL  OW     697   0.481   1.392   3.551
  233SOL  HW1    698   0.534   1.376   3.629
  233SOL  HW2    699   0.505   1.322   3.490
  234SOL  OW     700   0.445   1.364   3.832
  234SOL  HW1    701   0.436   1.405   3.746
  234SOL  HW2    702   0.531   1.394   3.864
  235SOL  OW     703   0.434   1.722   0.137
  235SOL  HW1    704   0.526   1.746   0.146
  235SOL  HW2    705   0.430   1.630   0.161
  236SOL  OW     706   0.466   1.716   0.484
  236SOL  HW1    707   0.445   1.656   0.413
  236SOL  HW2    708   0.429   1.800   0.457
  237SOL  OW     709   0.457   1.690   0.809
  237SOL  HW1    710   0.441   1.755   0.740
  237SOL  HW2    711   0.381   1.698   0.867
  238SOL  OW     712   0.476   1.717   1.109
  238SOL  HW1    713   0.382   1.727   1.092
  238SOL  HW2    714   0.489   1.623   1.121
  239SOL  OW     715   0.485   1.667   1.390
  239SOL  HW1    716   0.458   1.641   1.301
  239SOL  HW2    717   0.529   1.751   1.378
  240SOL  OW     718   0.430   1.705   1.729
  240SOL  HW1    719   0.438   1.616   1.765
  240SOL  HW2    720   0.503   1.713   1.668
  241SOL  OW     721   0.463   1.687   1.963
  241SOL  HW1    722   0.520   1.641   1.901
  241SOL  HW2    723   0.518   1.754   2.002
  242SOL  OW     724   0.498   1.661   2.271
  242SOL  HW1    725   0.486   1.711   2.191
  242SOL  HW2    726   0.592   1.643   2.274
  243SOL  OW     727   0.441   1.658   2.612
  243SOL  HW1    728   0.395   1.601   2.674
  243SOL  HW2    729   0.466   1.599   2.540
  244SOL  OW     730   0.463   1.677   2.887
  244SOL  HW1    731   0.426   1.597   2.851
  244SOL  HW2    732   0.513   1.715   2.815
  245SOL  OW     733   0.430   1.683   3.196
  245SOL  HW1    734   0.380   1.680   3.277
  245SOL  HW2    735   0.436   1.592   3.168
  246SOL  OW     736   0.477   1.669   3.523
  246SOL  HW1    737   0.451   1.604   3.588
  246SOL  HW2    738   0.480   1.620   3.440
  247SOL  OW     739   0.453   1.686   3.806
  247SOL  HW1    740   0.411   1.728   3.732
  247SOL  HW2    741   0.538   1.729   3.813
  248SOL  OW     742   0.431   2.029   0.114
  248SOL  HW1    743   0.499   2.010   0.179
  248SOL  HW2    744   0.448   2.119   0.086
  249SOL  OW     745   0.462   1.999   0.448
  249SOL  HW1    746   0.369   1.998   0.470
  249SOL  HW2    747   0.490   1.908   0.460
  250SOL  OW     748   0.456   2.022   0.797
  250SOL  HW1    749   0.446   1.934   0.831
  250SOL  HW2    750   0.518   2.064   0.857
  251SOL  OW     751   0.442   1.986   1.056
  251SOL  HW1    752   0.445   2.060   1.117
  251SOL  HW2    753   0.514   1.929   1.084
  252SOL  OW     754   0.460   2.015   1.363
  252SOL  HW1    755   0.525   1.998   1.431
  252SOL  HW2    756   0.502   2.077   1.303
  253SOL  OW     757   0.448   2.034   1.656
  253SOL  HW1    758   0.408   2.119   1.677
  253SOL  HW2    759   0.503   2.052   1.580
  254SOL  OW     760   0.458   2.017   1.972
  254SOL  HW1    761   0.535   2.007   1.916
  254SOL  HW2    762   0.401   1.944   1.948
  255SOL  OW     763   0.425   1.971   2.341
  255SOL  HW1    764   0.448   2.050   2.390
  255SOL  HW2    765   0.349   1.996   2.290
  256SOL  OW     766   0.422   1.975   2.578
  256SOL  HW1    767   0.334   2.011   2.588
  256SOL  HW2    768   0.431   1.960   2.484
  257SOL  OW     769   0.430   2.010   2.902
  257SOL  HW1    770   0.379   2.033   2.825
  257SOL  HW2    771   0.384   2.052   2.975
  258SOL  OW     772   0.467   2.007   3.259
  258SOL  HW1    773   0.491   1.989   3.349
  258SOL  HW2    774   0.389   1.954   3.244
  259SOL  OW     775   0.422   2.028   3.548
  259SOL  HW1    776   0.432   2.041   3.454
  259SOL  HW2    777   0.459   1.942   3.565
  260SOL  OW     778   0.435   2.022   3.875
  260SOL  HW1    779   0.431   2.060   3.962
  260SOL  HW2    780   0.406   1.931   3.886
  261SOL  OW     781   0.442   2.341   0.150
  261SOL  HW1    782   0.406   2.279   0.087
  261SOL  HW2    783   0.379   2.341   0.222
  262SOL  OW     784   0.470   2.346   0.450
  262SOL  HW1    785   0.386   2.390   0.434
  262SOL  HW2    786   0.529   2.381   0.383
  263SOL  OW     787   0.487   2.293   0.793
  263SOL  HW1    788   0.426   2.240   0.845
  263SOL  HW2    789   0.517   2.234   0.724
  264SOL  OW     790   0.470   2.285   1.070
  264SOL  HW1    791   0.465   2.372   1.031
  264SOL  HW2    792   0.563   2.268   1.081
  265SOL  OW     793   0.447   2.274   1.347
  265SOL  HW1    794   0.457   2.298   1.255
  265SOL  HW2    795   0.466   2.180   1.350
  266SOL  OW     796   0.449   2.269   1.666
  266SOL  HW1    797   0.363   2.295   1.633
  266SOL  HW2    798   0.511   2.318   1.611
  267SOL  OW     799   0.480   2.324   2.019
  267SOL  HW1    800   0.546   2.390   1.997
  267SOL  HW2    801   0.515   2.242   1.985
  268SOL  OW     802   0.447   2.339   2.315
  268SOL  HW1    803   0.535   2.367   2.291
  268SOL  HW2    804   0.460   2.289   2.396
  269SOL  OW     805   0.432   2.279   2.631
  269SOL  HW1    806   0.363   2.240   2.685
  269SOL  HW2    807   0.432   2.226   2.551
  270SOL  OW     808   0.435   2.308   2.962
  270SOL  HW1    809   0.362   2.249   2.979
  270SOL  HW2    810   0.509   2.268   3.009
  271SOL  OW     811   0.422   2.269   3.270
  271SOL  HW1    812   0.476   2.195   3.242
  271SOL  HW2    813   0.477   2.346   3.256
  272SOL  OW     814   0.468   2.278   3.570
  272SOL  HW1    815   0.399   2.254   3.509
  272SOL  HW2    816   0.531   2.328   3.518
  273SOL  OW     817   0.492   2.311   3.856
  273SOL  HW1    818   0.455   2.342   3.939
  273SOL  HW2    819   0.476   2.382   3.794
  274SOL  OW     820   0.443   2.579   0.161
  274SOL  HW1    821   0.418   2.514   0.227
  274SOL  HW2    822   0.366   2.635   0.152
  275SOL  OW     823   0.445   2.628   0.488
  275SOL  HW1    824   0.370   2.670   0.445
  275SOL  HW2    825   0.458   2.679   0.569
  276SOL  OW     826   0.423   2.623   0.748
  276SOL  HW1    827   0.427   2.546   0.804
  276SOL  HW2    828   0.493   2.680   0.780
  277SOL  OW     829   0.491   2.596   1.086
  277SOL  HW1    830   0.564   2.534   1.084
  277SOL  HW2    831   0.460   2.599   0.996
  278SOL  OW     832   0.466   2.607   1.399
  278SOL  HW1    833   0.523   2.618   1.323
  278SOL  HW2    834   0.524   2.620   1.474
  279SOL  OW     835   0.480   2.621   1.713
  279SOL  HW1    836   0.446   2.678   1.782
  279SOL  HW2    837   0.532   2.556   1.760
  280SOL  OW     838   0.500   2.609   2.001
  280SOL  HW1    839   0.419   2.657   2.018
  280SOL  HW2    840   0.546   2.610   2.085
  281SOL  OW     841   0.423   2.639   2.309
  281SOL  HW1    842   0.370   2.616   2.386
  281SOL  HW2    843   0.391   2.726   2.284
  282SOL  OW     844   0.454   2.583   2.647
  282SOL  HW1    845   0.522   2.524   2.679
  282SOL  HW2    846   0.393   2.526   2.599
  283SOL  OW     847   0.453   2.630   2.895
  283SOL  HW1    848   0.434   2.698   2.831
  283SOL  HW2    849   0.549   2.623   2.894
  284SOL  OW     850   0.498   2.590   3.207
  284SOL  HW1    851   0.423   2.534   3.187
  284SOL  HW2    852   0.512   2.579   3.301
  285SOL  OW     853   0.490   2.648   3.515
  285SOL  HW1    854   0.440   2.631   3.436
  285SOL  HW2    855   0.582   2.638   3.489
  286SOL  OW     856   0.459   2.634   3.876
  286SOL  HW1    857   0.459   2.730   3.874
  286SOL  HW2    858   0.371   2.609   3.849
  287SOL  OW     859   0.452   2.924   0.173
  287SOL  HW1    860   0.487   3.008   0.202
  287SOL  HW2    861   0.423   2.940   0.083
  288SOL  OW     862   0.480   2.946   0.467
  288SOL  HW1    863   0.447   3.035   0.459
  288SOL  HW2    864   0.569   2.956   0.500
  289SOL  OW     865   0.430   2.955   0.798
  289SOL  HW1    866   0.384   3.031   0.763
  289SOL  HW2    867   0.451   2.980   0.888
  290SOL  OW     868   0.485   2.891   1.053
  290SOL  HW1    869   0.463   2.802   1.079
  290SOL  HW2    870   0.580   2.896   1.063
  291SOL  OW     871   0.481   2.885   1.423
  291SOL  HW1    872   0.432   2.843   1.353
  291SOL  HW2    873   0.511   2.968   1.385
  292SOL  OW     874   0.452   2.941   1.723
  292SOL  HW1    875   0.445   2.859   1.674
  292SOL  HW2    876   0.454   3.009   1.656
  293SOL  OW     877   0.453   2.909   2.009
  293SOL  HW1    878   0.493   2.822   2.005
  293SOL  HW2    879   0.501   2.954   2.078
  294SOL  OW     880   0.468   2.916   2.316
  294SOL  HW1    881   0.455   2.871   2.400
  294SOL  HW2    882   0.563   2.920   2.306
  295SOL  OW     883   0.496   2.920   2.591
  295SOL  HW1    884   0.582   2.955   2.568
  295SOL  HW2    885   0.438   2.996   2.588
  296SOL  OW     886   0.452   2.915   2.894
  296SOL  HW1    887   0.527   2.974   2.898
  296SOL  HW2    888   0.389   2.959   2.836
  297SOL  OW     889   0.435   2.938   3.218
  297SOL  HW1    890   0.457   2.853   3.180
  297SOL  HW2    891   0.348   2.925   3.256
  298SOL  OW     892   0.498   2.903   3.506
  298SOL  HW1    893   0.514   2.919   3.599
  298SOL  HW2    894   0.451   2.980   3.476
  299SOL  OW     895   0.482   2.954   3.828
  299SOL  HW1    896   0.446   2.867   3.809
  299SOL  HW2    897   0.417   3.014   3.793
  300SOL  OW     898   0.438   3.206   0.156
  300SOL  HW1    899   0.470   3.270   0.092
  300SOL  HW2    900   0.434   3.123   0.107
  301SOL  OW     901   0.459   3.212   0.425
  301SOL  HW1    902   0.518   3.187   0.496
  301SOL  HW2    903   0.400   3.137   0.415
  302SOL  OW     904   0.460   3.268   0.781
  302SOL  HW1    905   0.419   3.274   0.867
  302SOL  HW2    906   0.441   3.178   0.753
  303SOL  OW     907   0.461   3.200   1.057
  303SOL  HW1    908   0.386   3.250   1.087
  303SOL  HW2    909   0.535   3.260   1.065
  304SOL  OW     910   0.445   3.252   1.415
  304SOL  HW1    911   0.416   3.271   1.504
  304SOL  HW2    912   0.473   3.337   1.380
  305SOL  OW     913   0.494   3.270   1.731
  305SOL  HW1    914   0.522   3.327   1.659
  305SOL  HW2    915   0.506   3.322   1.810
  306SOL  OW     916   0.498   3.197   1.971
  306SOL  HW1    917   0.427   3.132   1.974
  306SOL  HW2    918   0.550   3.179   2.049
  307SOL  OW     919   0.446   3.235   2.275
  307SOL  HW1    920   0.478   3.325   2.267
  307SOL  HW2    921   0.356   3.244   2.308
  308SOL  OW     922   0.489   3.240   2.619
  308SOL  HW1    923   0.505   3.157   2.574
  308SOL  HW2    924   0.513   3.223   2.710
  309SOL  OW     925   0.435   3.211   2.896
  309SOL  HW1    926   0.463   3.302   2.894
  309SOL  HW2    927   0.400   3.198   2.984
  310SOL  OW     928   0.490   3.238   3.250
  310SOL  HW1    929   0.476   3.319   3.201
  310SOL  HW2    930   0.528   3.177   3.186
  311SOL  OW     931   0.445   3.220   3.531
  311SOL  HW1    932   0.474   3.289   3.592
  311SOL  HW2    933   0.511   3.222   3.461
  312SOL  OW     934   0.482   3.253   3.823
  312SOL  HW1    935   0.496   3.263   3.729
  312SOL  HW2    936   0.560   3.206   3.854
  313SOL  OW     937   0.497   3.508   0.186
  313SOL  HW1    938   0.430   3.463   0.237
  313SOL  HW2    939   0.451   3.538   0.107
  314SOL  OW     940   0.430   3.520   0.489
  314SOL  HW1    941   0.431   3.426   0.468
  314SOL  HW2    942   0.470   3.562   0.414
  315SOL  OW     943   0.436   3.532   0.765
  315SOL  HW1    944   0.520   3.505   0.729
  315SOL  HW2    945   0.383   3.452   0.763
  316SOL  OW     946   0.441   3.555   1.105
  316SOL  HW1    947   0.389   3.562   1.185
  316SOL  HW2    948   0.489   3.638   1.101
  317SOL  OW     949   0.492   3.526   1.387
  317SOL  HW1    950   0.479   3.468   1.462
  317SOL  HW2    951   0.556   3.590   1.417
  318SOL  OW     952   0.441   3.518   1.665
  318SOL  HW1    953   0.452   3.600   1.714
  318SOL  HW2    954   0.402   3.458   1.728
  319SOL  OW     955   0.497   3.570   2.022
  319SOL  HW1    956   0.526   3.656   2.051
  319SOL  HW2    957   0.578   3.523   2.001
  320SOL  OW     958   0.463   3.538   2.310
  320SOL  HW1    959   0.480   3.605   2.244
  320SOL  HW2    960   0.459   3.456   2.261
  321SOL  OW     961   0.464   3.533   2.586
  321SOL  HW1    962   0.384   3.561   2.630
  321SOL  HW2    963   0.450   3.556   2.494
  322SOL  OW     964   0.432   3.575   2.922
  322SOL  HW1    965   0.467   3.584   3.010
  322SOL  HW2    966   0.338   3.591   2.932
  323SOL  OW     967   0.498   3.512   3.235
  323SOL  HW1    968   0.539   3.597   3.243
  323SOL  HW2    969   0.531   3.462   3.310
  324SOL  OW     970   0.438   3.519   3.501
  324SOL  HW1    971   0.447   3.426   3.524
  324SOL  HW2    972   0.375   3.520   3.429
  325SOL  OW     973   0.431   3.572   3.832
  325SOL  HW1    974   0.391   3.623   3.762
  325SOL  HW2    975   0.511   3.620   3.854
  326SOL  OW     976   0.470   3.843   0.146
  326SOL  HW1    977   0.547   3.792   0.121
  326SOL  HW2    978   0.419   3.785   0.202
  327SOL  OW     979   0.464   3.821   0.501
  327SOL  HW1    980   0.526   3.748   0.496
  327SOL  HW2    981   0.386   3.783   0.541
  328SOL  OW     982   0.487   3.865   0.767
  328SOL  HW1    983   0.580   3.849   0.754
  328SOL  HW2    984   0.445   3.782   0.746
  329SOL  OW     985   0.434   3.880   1.064
  329SOL  HW1    986   0.505   3.847   1.119
  329SOL  HW2    987   0.354   3.844   1.104
  330SOL  OW     988   0.426   3.834   1.408
  330SOL  HW1    989   0.430   3.757   1.465
  330SOL  HW2    990   0.434   3.798   1.320
  331SOL  OW     991   0.471   3.866   1.716
  331SOL  HW1    992   0.488   3.854   1.622
  331SOL  HW2    993   0.384   3.829   1.730
  332SOL  OW     994   0.438   3.880   1.995
  332SOL  HW1    995   0.371   3.932   2.039
  332SOL  HW2    996   0.468   3.935   1.922
  333SOL  OW     997   0.473   3.806   2.347
  333SOL  HW1    998   0.402   3.757   2.388
  333SOL  HW2    999   0.542   3.742   2.334
  334SOL  OW    1000   0.444   3.811   2.612
  334SOL  HW1   1001   0.486   3.897   2.620
  334SOL  HW2   1002   0.451   3.773   2.699
  335SOL  OW    1003   0.432   3.818   2.934
  335SOL  HW1   1004   0.390   3.739   2.900
  335SOL  HW2   1005   0.368   3.855   2.995
  336SOL  OW    1006   0.453   3.880   3.216
  336SOL  HW1   1007   0.506   3.831   3.279
  336SOL  HW2   1008   0.501   3.961   3.201
  337SOL  OW    1009   0.480   3.843   3.551
  337SOL  HW1   1010   0.411   3.809   3.609
  337SOL  HW2   1011   0.542   3.885   3.610
  338SOL  OW    1012   0.470   3.844   3.882
  338SOL  HW1   1013   0.404   3.904   3.846
  338SOL  HW2   1014   0.526   3.900   3.936
  339SOL  OW    1015   0.757   0.128   0.168
  339SOL  HW1   1016   0.823   0.090   0.226
  339SOL  HW2   1017   0.682   0.069   0.176
  340SOL  OW    1018   0.797   0.117   0.458
  340SOL  HW1   1019   0.879   0.167   0.458
  340SOL  HW2   1020   0.779   0.099   0.550
  341SOL  OW    1021   0.801   0.174   0.809
  341SOL  HW1   1022   0.762   0.241   0.864
  341SOL  HW2   1023   0.729   0.112   0.792
  342SOL  OW    1024   0.772   0.167   1.061
  342SOL  HW1   1025   0.789   0.156   1.155
  342SOL  HW2   1026   0.807   0.253   1.040
  343SOL  OW    1027   0.805   0.143   1.404
  343SOL  HW1   1028   0.714   0.136   1.374
  343SOL  HW2   1029   0.800   0.192   1.486
  344SOL  OW    1030   0.761   0.159   1.710
  344SOL  HW1   1031   0.762   0.225   1.779
  344SOL  HW2   1032   0.854   0.137   1.697
  345SOL  OW    1033   0.770   0.186   1.994
  345SOL  HW1   1034   0.863   0.201   2.009
  345SOL  HW2   1035   0.765   0.098   1.958
  346SOL  OW    1036   0.781   0.141   2.300
  346SOL  HW1   1037   0.844   0.102   2.361
  346SOL  HW2   1038   0.696   0.114   2.334
  347SOL  OW    1039   0.764   0.124   2.583
  347SOL  HW1   1040   0.702   0.111   2.512
  347SOL  HW2   1041   0.728   0.075   2.656
  348SOL  OW    1042   0.783   0.166   2.936
  348SOL  HW1   1043   0.793   0.092   2.995
  348SOL  HW2   1044   0.697   0.153   2.895
  349SOL  OW    1045   0.731   0.140   3.207
  349SOL  HW1   1046   0.804   0.083   3.182
  349SOL  HW2   1047   0.660   0.080   3.230
  350SOL  OW    1048   0.791   0.183   3.518
  350SOL  HW1   1049   0.698   0.204   3.517
  350SOL  HW2   1050   0.835   0.263   3.489
  351SOL  OW    1051   0.783   0.124   3.828
  351SOL  HW1   1052   0.749   0.109   3.740
  351SOL  HW2   1053   0.760   0.044   3.876
  352SOL  OW    1054   0.740   0.444   0.168
  352SOL  HW1   1055   0.655   0.401   0.165
  352SOL  HW2   1056   0.730   0.522   0.113
  353SOL  OW    1057   0.802   0.438   0.465
  353SOL  HW1   1058   0.838   0.443   0.376
  353SOL  HW2   1059   0.838   0.514   0.511
  354SOL  OW    1060   0.785   0.498   0.778
  354SOL  HW1   1061   0.716   0.548   0.734
  354SOL  HW2   1062   0.766   0.406   0.757
  355SOL  OW    1063   0.750   0.472   1.063
  355SOL  HW1   1064   0.756   0.468   0.967
  355SOL  HW2   1065   0.767   0.382   1.091
  356SOL  OW    1066   0.807   0.454   1.399
  356SOL  HW1   1067   0.804   0.404   1.481
  356SOL  HW2   1068   0.716   0.477   1.383
  357SOL  OW    1069   0.731   0.454   1.722
  357SOL  HW1   1070   0.641   0.484   1.709
  357SOL  HW2   1071   0.784   0.533   1.717
  358SOL  OW    1072   0.778   0.457   2.035
  358SOL  HW1   1073   0.771   0.406   2.115
  358SOL  HW2   1074   0.738   0.541   2.056
  359SOL  OW    1075   0.798   0.447   2.311
  359SOL  HW1   1076   0.852   0.450   2.390
  359SOL  HW2   1077   0.773   0.539   2.296
  360SOL  OW    1078   0.768   0.472   2.602
  360SOL  HW1   1079   0.674   0.456   2.600
  360SOL  HW2   1080   0.776   0.567   2.607
  361SOL  OW    1081   0.749   0.495   2.957
  361SOL  HW1   1082   0.712   0.444   3.030
  361SOL  HW2   1083   0.837   0.518   2.986
  362SOL  OW    1084   0.797   0.500   3.250
  362SOL  HW1   1085   0.815   0.551   3.329
  362SOL  HW2   1086   0.802   0.563   3.179
  363SOL  OW    1087   0.790   0.483   3.537
  363SOL  HW1   1088   0.853   0.423   3.578
  363SOL  HW2   1089   0.713   0.477   3.592
  364SOL  OW    1090   0.766   0.441   3.858
  364SOL  HW1   1091   0.693   0.395   3.899
  364SOL  HW2   1092   0.837   0.377   3.856
  365SOL  OW    1093   0.752   0.750   0.161
  365SOL  HW1   1094   0.811   0.745   0.085
  365SOL  HW2   1095   0.665   0.733   0.125
  366SOL  OW    1096   0.762   0.747   0.487
  366SOL  HW1   1097   0.816   0.782   0.558
  366SOL  HW2   1098   0.710   0.821   0.457
  367SOL  OW    1099   0.798   0.743   0.730
  367SOL  HW1   1100   0.883   0.729   0.687
  367SOL  HW2   1101   0.744   0.784   0.663
  368SOL  OW    1102   0.756   0.793   1.104
  368SOL  HW1   1103   0.804   0.870   1.135
  368SOL  HW2   1104   0.761   0.798   1.009
  369SOL  OW    1105   0.740   0.791   1.354
  369SOL  HW1   1106   0.693   0.799   1.271
  369SOL  HW2   1107   0.732   0.878   1.394
  370SOL  OW    1108   0.760   0.809   1.668
  370SOL  HW1   1109   0.822   0.799   1.740
  370SOL  HW2   1110   0.773   0.731   1.614
  371SOL  OW    1111   0.742   0.763   2.010
  371SOL  HW1   1112   0.777   0.835   1.957
  371SOL  HW2   1113   0.686   0.806   2.074
  372SOL  OW    1114   0.804   0.808   2.273
  372SOL  HW1   1115   0.801   0.873   2.343
  372SOL  HW2   1116   0.859   0.847   2.206
  373SOL  OW    1117   0.740   0.792   2.597
  373SOL  HW1   1118   0.787   0.823   2.519
  373SOL  HW2   1119   0.720   0.873   2.645
  374SOL  OW    1120   0.800   0.782   2.892
  374SOL  HW1   1121   0.874   0.783   2.953
  374SOL  HW2   1122   0.765   0.871   2.897
  375SOL  OW    1123   0.796   0.743   3.225
  375SOL  HW1   1124   0.864   0.810   3.217
  375SOL  HW2   1125   0.832   0.667   3.179
  376SOL  OW    1126   0.773   0.769   3.553
  376SOL  HW1   1127   0.741   0.858   3.536
  376SOL  HW2   1128   0.784   0.766   3.648
  377SOL  OW    1129   0.781   0.809   3.886
  377SOL  HW1   1130   0.740   0.838   3.805
  377SOL  HW2   1131   0.858   0.865   3.896
  378SOL  OW    1132   0.771   1.045   0.172
  378SOL  HW1   1133   0.830   1.018   0.102
  378SOL  HW2   1134   0.751   0.963   0.218
  379SOL  OW    1135   0.807   1.062   0.458
  379SOL  HW1   1136   0.873   1.132   0.462
  379SOL  HW2   1137   0.789   1.052   0.365
  380SOL  OW    1138   0.763   1.041   0.783
  380SOL  HW1   1139   0.799   1.065   0.697
  380SOL  HW2   1140   0.678   1.085   0.787
  381SOL  OW    1141   0.757   1.100   1.103
  381SOL  HW1   1142   0.784   1.176   1.155
  381SOL  HW2   1143   0.773   1.126   1.013
  382SOL  OW    1144   0.795   1.070   1.370
  382SOL  HW1   1145   0.755   1.057   1.284
  382SOL  HW2   1146   0.732   1.033   1.432
  383SOL  OW    1147   0.789   1.101   1.692
  383SOL  HW1   1148   0.875   1.128   1.660
  383SOL  HW2   1149   0.728   1.137   1.628
  384SOL  OW    1150   0.801   1.048   2.030
  384SOL  HW1   1151   0.768   1.099   1.956
  384SOL  HW2   1152   0.828   1.114   2.094
  385SOL  OW    1153   0.737   1.049   2.310
  385SOL  HW1   1154   0.644   1.025   2.313
  385SOL  HW2   1155   0.779   0.992   2.375
  386SOL  OW    1156   0.735   1.041   2.575
  386SOL  HW1   1157   0.743   1.079   2.663
  386SOL  HW2   1158   0.697   1.111   2.522
  387SOL  OW    1159   0.764   1.099   2.886
  387SOL  HW1   1160   0.773   1.111   2.980
  387SOL  HW2   1161   0.680   1.055   2.875
  388SOL  OW    1162   0.781   1.103   3.204
  388SOL  HW1   1163   0.716   1.127   3.270
  388SOL  HW2   1164   0.799   1.010   3.220
  389SOL  OW    1165   0.741   1.106   3.564
  389SOL  HW1   1166   0.778   1.025   3.528
  389SOL  HW2   1167   0.663   1.122   3.511
  390SOL  OW    1168   0.772   1.102   3.814
  390SOL  HW1   1169   0.839   1.095   3.882
  390SOL  HW2   1170   0.800   1.177   3.761
  391SOL  OW    1171   0.761   1.404   0.134
  391SOL  HW1   1172   0.716   1.327   0.170
  391SOL  HW2   1173   0.769   1.385   0.041
  392SOL  OW    1174   0.789   1.385   0.482
  392SOL  HW1   1175   0.847   1.348   0.414
  392SOL  HW2   1176   0.721   1.431   0.433
  393SOL  OW    1177   0.766   1.374   0.747
  393SOL  HW1   1178   0.845   1.416   0.782
  393SOL  HW2   1179   0.712   1.357   0.824
  394SOL  OW    1180   0.746   1.405   1.046
  394SOL  HW1   1181   0.828   1.363   1.022
  394SOL  HW2   1182   0.685   1.383   0.976
  395SOL  OW    1183   0.736   1.359   1.359
  395SOL  HW1   1184   0.659   1.338   1.411
  395SOL  HW2   1185   0.782   1.275   1.349
  396SOL  OW    1186   0.795   1.376   1.732
  396SOL  HW1   1187   0.788   1.403   1.823
  396SOL  HW2   1188   0.877   1.326   1.727
  397SOL  OW    1189   0.740   1.397   1.996
  397SOL  HW1   1190   0.735   1.420   2.089
  397SOL  HW2   1191   0.650   1.400   1.965
  398SOL  OW    1192   0.761   1.415   2.346
  398SOL  HW1   1193   0.813   1.494   2.357
  398SOL  HW2   1194   0.705   1.433   2.270
  399SOL  OW    1195   0.799   1.360   2.593
  399SOL  HW1   1196   0.824   1.274   2.558
  399SOL  HW2   1197   0.750   1.340   2.673
  400SOL  OW    1198   0.782   1.368   2.942
  400SOL  HW1   1199   0.796   1.383   2.848
  400SOL  HW2   1200   0.742   1.449   2.974
  401SOL  OW    1201   0.775   1.389   3.257
  401SOL  HW1   1202   0.839   1.459   3.249
  401SOL  HW2   1203   0.710   1.408   3.189
  402SOL  OW    1204   0.786   1.347   3.502
  402SOL  HW1   1205   0.772   1.355   3.597
  402SOL  HW2   1206   0.723   1.407   3.463
  403SOL  OW    1207   0.777   1.384   3.827
  403SOL  HW1   1208   0.718   1.337   3.886
  403SOL  HW2   1209   0.757   1.349   3.740
  404SOL  OW    1210   0.763   1.713   0.180
  404SOL  HW1   1211   0.757   1.666   0.263
  404SOL  HW2   1212   0.856   1.728   0.168
  405SOL  OW    1213   0.774   1.683   0.443
  405SOL  HW1   1214   0.805   1.690   0.353
  405SOL  HW2   1215   0.754   1.773   0.469
  406SOL  OW    1216   0.771   1.677   0.774
  406SOL  HW1   1217   0.738   1.598   0.731
  406SOL  HW2   1218   0.695   1.735   0.780
  407SOL  OW    1219   0.783   1.658   1.037
  407SOL  HW1   1220   0.722   1.635   0.967
  407SOL  HW2   1221   0.860   1.602   1.021
  408SOL  OW    1222   0.746   1.724   1.396
  408SOL  HW1   1223   0.731   1.803   1.345
  408SOL  HW2   1224   0.664   1.675   1.389
  409SOL  OW    1225   0.743   1.724   1.690
  409SOL  HW1   1226   0.819   1.714   1.633
  409SOL  HW2   1227   0.773   1.782   1.760
  410SOL  OW    1228   0.767   1.727   1.965
  410SOL  HW1   1229   0.714   1.683   1.899
  410SOL  HW2   1230   0.801   1.657   2.020
  411SOL  OW    1231   0.746   1.699   2.283
  411SOL  HW1   1232   0.709   1.772   2.332
  411SOL  HW2   1233   0.732   1.722   2.191
  412SOL  OW    1234   0.784   1.669   2.583
  412SOL  HW1   1235   0.802   1.664   2.490
  412SOL  HW2   1236   0.758   1.581   2.608
  413SOL  OW    1237   0.746   1.686   2.897
  413SOL  HW1   1238   0.767   1.707   2.988
  413SOL  HW2   1239   0.799   1.609   2.878
  414SOL  OW    1240   0.740   1.721   3.216
  414SOL  HW1   1241   0.794   1.670   3.276
  414SOL  HW2   1242   0.663   1.666   3.201
  415SOL  OW    1243   0.758   1.657   3.527
  415SOL  HW1   1244   0.731   1.709   3.602
  415SOL  HW2   1245   0.678   1.644   3.476
  416SOL  OW    1246   0.750   1.701   3.823
  416SOL  HW1   1247   0.836   1.703   3.780
  416SOL  HW2   1248   0.770   1.707   3.916
  417SOL  OW    1249   0.800   2.034   0.122
  417SOL  HW1   1250   0.789   2.018   0.215
  417SOL  HW2   1251   0.880   2.087   0.116
  418SOL  OW    1252   0.738   1.969   0.471
  418SOL  HW1   1253   0.812   1.951   0.529
  418SOL  HW2   1254   0.713   1.884   0.437
  419SOL  OW    1255   0.739   2.028   0.790
  419SOL  HW1   1256   0.799   2.021   0.864
  419SOL  HW2   1257   0.795   2.055   0.717
  420SOL  OW    1258   0.795   2.002   1.117
  420SOL  HW1   1259   0.840   1.918   1.120
  420SOL  HW2   1260   0.854   2.063   1.161
  421SOL  OW    1261   0.733   1.992   1.371
  421SOL  HW1   1262   0.645   2.026   1.388
  421SOL  HW2   1263   0.723   1.897   1.372
  422SOL  OW    1264   0.805   2.006   1.717
  422SOL  HW1   1265   0.809   2.031   1.809
  422SOL  HW2   1266   0.896   1.988   1.693
  423SOL  OW    1267   0.743   2.038   2.000
  423SOL  HW1   1268   0.837   2.030   1.985
  423SOL  HW2   1269   0.734   2.043   2.095
  424SOL  OW    1270   0.769   2.038   2.298
  424SOL  HW1   1271   0.681   2.058   2.265
  424SOL  HW2   1272   0.827   2.051   2.223
  425SOL  OW    1273   0.761   2.007   2.586
  425SOL  HW1   1274   0.835   2.049   2.629
  425SOL  HW2   1275   0.687   2.066   2.600
  426SOL  OW    1276   0.755   1.975   2.891
  426SOL  HW1   1277   0.693   1.948   2.823
  426SOL  HW2   1278   0.826   1.912   2.885
  427SOL  OW    1279   0.799   2.007   3.219
  427SOL  HW1   1280   0.736   1.952   3.172
  427SOL  HW2   1281   0.822   2.076   3.157
  428SOL  OW    1282   0.762   1.995   3.549
  428SOL  HW1   1283   0.783   1.923   3.489
  428SOL  HW2   1284   0.805   2.071   3.511
  429SOL  OW    1285   0.803   2.035   3.837
  429SOL  HW1   1286   0.867   1.988   3.784
  429SOL  HW2   1287   0.818   2.001   3.926
  430SOL  OW    1288   0.756   2.304   0.159
  430SOL  HW1   1289   0.752   2.346   0.245
  430SOL  HW2   1290   0.749   2.210   0.179
  431SOL  OW    1291   0.766   2.320   0.466
  431SOL  HW1   1292   0.753   2.287   0.377
  431SOL  HW2   1293   0.800   2.245   0.515
  432SOL  OW    1294   0.755   2.295   0.760
  432SOL  HW1   1295   0.762   2.216   0.812
  432SOL  HW2   1296   0.789   2.270   0.674
  433SOL  OW    1297   0.737   2.281   1.095
  433SOL  HW1   1298   0.807   2.226   1.061
  433SOL  HW2   1299   0.771   2.316   1.177
  434SOL  OW    1300   0.760   2.285   1.390
  434SOL  HW1   1301   0.702   2.267   1.464
  434SOL  HW2   1302   0.804   2.367   1.412
  435SOL  OW    1303   0.790   2.288   1.718
  435SOL  HW1   1304   0.799   2.229   1.644
  435SOL  HW2   1305   0.872   2.280   1.766
  436SOL  OW    1306   0.803   2.315   2.014
  436SOL  HW1   1307   0.733   2.291   1.953
  436SOL  HW2   1308   0.843   2.393   1.974
  437SOL  OW    1309   0.733   2.343   2.299
  437SOL  HW1   1310   0.791   2.307   2.232
  437SOL  HW2   1311   0.782   2.418   2.333
  438SOL  OW    1312   0.803   2.314   2.576
  438SOL  HW1   1313   0.850   2.231   2.575
  438SOL  HW2   1314   0.718   2.293   2.615
  439SOL  OW    1315   0.732   2.322   2.928
  439SOL  HW1   1316   0.813   2.328   2.877
  439SOL  HW2   1317   0.757   2.273   3.007
  440SOL  OW    1318   0.731   2.327   3.259
  440SOL  HW1   1319   0.653   2.377   3.236
  440SOL  HW2   1320   0.803   2.390   3.250
  441SOL  OW    1321   0.769   2.305   3.499
  441SOL  HW1   1322   0.840   2.316   3.435
  441SOL  HW2   1323   0.788   2.221   3.542
  442SOL  OW    1324   0.792   2.294   3.876
  442SOL  HW1   1325   0.800   2.209   3.919
  442SOL  HW2   1326   0.765   2.353   3.947
  443SOL  OW    1327   0.759   2.621   0.135
  443SOL  HW1   1328   0.695   2.598   0.203
  443SOL  HW2   1329   0.842   2.587   0.169
  444SOL  OW    1330   0.742   2.637   0.461
  444SOL  HW1   1331   0.690   2.638   0.381
  444SOL  HW2   1332   0.700   2.703   0.517
  445SOL  OW    1333   0.772   2.653   0.806
  445SOL  HW1   1334   0.752   2.635   0.898
  445SOL  HW2   1335   0.753   2.746   0.795
  446SOL  OW    1336   0.798   2.590   1.084
  446SOL  HW1   1337   0.881   2.637   1.080
  446SOL  HW2   1338   0.821   2.498   1.075
  447SOL  OW    1339   0.799   2.605   1.353
  447SOL  HW1   1340   0.784   2.687   1.304
  447SOL  HW2   1341   0.714   2.562   1.353
  448SOL  OW    1342   0.794   2.614   1.697
  448SOL  HW1   1343   0.749   2.582   1.619
  448SOL  HW2   1344   0.877   2.566   1.699
  449SOL  OW    1345   0.808   2.624   1.994
  449SOL  HW1   1346   0.890   2.665   2.022
  449SOL  HW2   1347   0.816   2.616   1.899
  450SOL  OW    1348   0.759   2.609   2.277
  450SOL  HW1   1349   0.807   2.636   2.355
  450SOL  HW2   1350   0.822   2.556   2.228
  451SOL  OW    1351   0.793   2.642   2.598
  451SOL  HW1   1352   0.885   2.622   2.614
  451SOL  HW2   1353   0.783   2.733   2.626
  452SOL  OW    1354   0.754   2.645   2.885
  452SOL  HW1   1355   0.677   2.635   2.829
  452SOL  HW2   1356   0.772   2.739   2.883
  453SOL  OW    1357   0.771   2.612   3.246
  453SOL  HW1   1358   0.735   2.674   3.182
  453SOL  HW2   1359   0.861   2.641   3.260
  454SOL  OW    1360   0.742   2.629   3.529
  454SOL  HW1   1361   0.654   2.620   3.494
  454SOL  HW2   1362   0.737   2.702   3.590
  455SOL  OW    1363   0.779   2.579   3.843
  455SOL  HW1   1364   0.780   2.483   3.832
  455SOL  HW2   1365   0.809   2.593   3.933
  456SOL  OW    1366   0.771   2.900   0.125
  456SOL  HW1   1367   0.790   2.993   0.137
  456SOL  HW2   1368   0.831   2.872   0.056
  457SOL  OW    1369   0.744   2.911   0.429
  457SOL  HW1   1370   0.706   2.824   0.440
  457SOL  HW2   1371   0.753   2.921   0.335
  458SOL  OW    1372   0.805   2.915   0.794
  458SOL  HW1   1373   0.766   2.887   0.877
  458SOL  HW2   1374   0.745   2.982   0.760
  459SOL  OW    1375   0.807   2.890   1.089
  459SOL  HW1   1376   0.769   2.826   1.029
  459SOL  HW2   1377   0.737   2.907   1.152
  460SOL  OW    1378   0.799   2.934   1.379
  460SOL  HW1   1379   0.742   2.933   1.302
  460SOL  HW2   1380   0.881   2.895   1.349
  461SOL  OW    1381   0.764   2.886   1.695
  461SOL  HW1   1382   0.855   2.913   1.705
  461SOL  HW2   1383   0.767   2.790   1.691
  462SOL  OW    1384   0.809   2.960   1.963
  462SOL  HW1   1385   0.731   2.904   1.971
  462SOL  HW2   1386   0.817   3.002   2.049
  463SOL  OW    1387   0.786   2.907   2.340
  463SOL  HW1   1388   0.714   2.912   2.403
  463SOL  HW2   1389   0.840   2.835   2.372
  464SOL  OW    1390   0.733   2.958   2.642
  464SOL  HW1   1391   0.716   3.048   2.668
  464SOL  HW2   1392   0.793   2.925   2.709
  465SOL  OW    1393   0.739   2.888   2.950
  465SOL  HW1   1394   0.759   2.874   3.042
  465SOL  HW2   1395   0.701   2.805   2.920
  466SOL  OW    1396   0.742   2.926   3.264
  466SOL  HW1   1397   0.677   2.859   3.287
  466SOL  HW2   1398   0.788   2.943   3.346
  467SOL  OW    1399   0.775   2.915   3.534
  467SOL  HW1   1400   0.771   2.821   3.515
  467SOL  HW2   1401   0.687   2.936   3.567
  468SOL  OW    1402   0.734   2.961   3.831
  468SOL  HW1   1403   0.805   2.982   3.891
  468SOL  HW2   1404   0.708   2.872   3.856
  469SOL  OW    1405   0.744   3.214   0.191
  469SOL  HW1   1406   0.824   3.175   0.155
  469SOL  HW2   1407   0.732   3.295   0.141
  470SOL  OW    1408   0.737   3.260   0.478
  470SOL  HW1   1409   0.779   3.185   0.519
  470SOL  HW2   1410   0.745   3.330   0.543
  471SOL  OW    1411   0.796   3.269   0.797
  471SOL  HW1   1412   0.821   3.178   0.782
  471SOL  HW2   1413   0.708   3.276   0.760
  472SOL  OW    1414   0.805   3.201   1.101
  472SOL  HW1   1415   0.732   3.263   1.105
  472SOL  HW2   1416   0.772   3.122   1.144
  473SOL  OW    1417   0.773   3.234   1.417
  473SOL  HW1   1418   0.683   3.265   1.427
  473SOL  HW2   1419   0.784   3.169   1.485
  474SOL  OW    1420   0.807   3.247   1.691
  474SOL  HW1   1421   0.757   3.174   1.656
  474SOL  HW2   1422   0.835   3.218   1.778
  475SOL  OW    1423   0.766   3.222   1.989
  475SOL  HW1   1424   0.825   3.277   1.938
  475SOL  HW2   1425   0.715   3.173   1.923
  476SOL  OW    1426   0.761   3.198   2.274
  476SOL  HW1   1427   0.732   3.232   2.358
  476SOL  HW2   1428   0.683   3.154   2.238
  477SOL  OW    1429   0.792   3.226   2.650
  477SOL  HW1   1430   0.731   3.296   2.674
  477SOL  HW2   1431   0.787   3.222   2.554
  478SOL  OW    1432   0.778   3.194   2.896
  478SOL  HW1   1433   0.757   3.126   2.960
  478SOL  HW2   1434   0.761   3.152   2.811
  479SOL  OW    1435   0.746   3.269   3.208
  479SOL  HW1   1436   0.759   3.308   3.122
  479SOL  HW2   1437   0.742   3.343   3.268
  480SOL  OW    1438   0.770   3.266   3.577
  480SOL  HW1   1439   0.693   3.217   3.547
  480SOL  HW2   1440   0.821   3.202   3.628
  481SOL  OW    1441   0.748   3.195   3.818
  481SOL  HW1   1442   0.806   3.203   3.894
  481SOL  HW2   1443   0.777   3.263   3.758
  482SOL  OW    1444   0.734   3.514   0.159
  482SOL  HW1   1445   0.666   3.497   0.224
  482SOL  HW2   1446   0.803   3.451   0.180
  483SOL  OW    1447   0.802   3.541   0.472
  483SOL  HW1   1448   0.762   3.522   0.387
  483SOL  HW2   1449   0.846   3.626   0.459
  484SOL  OW    1450   0.745   3.563   0.779
  484SOL  HW1   1451   0.805   3.576   0.705
  484SOL  HW2   1452   0.786   3.494   0.831
  485SOL  OW    1453   0.798   3.574   1.065
  485SOL  HW1   1454   0.771   3.547   1.152
  485SOL  HW2   1455   0.841   3.659   1.078
  486SOL  OW    1456   0.736   3.517   1.380
  486SOL  HW1   1457   0.714   3.595   1.429
  486SOL  HW2   1458   0.726   3.445   1.442
  487SOL  OW    1459   0.805   3.529   1.714
  487SOL  HW1   1460   0.766   3.543   1.628
  487SOL  HW2   1461   0.737   3.555   1.775
  488SOL  OW    1462   0.772   3.513   1.986
  488SOL  HW1   1463   0.795   3.420   1.982
  488SOL  HW2   1464   0.691   3.516   2.037
  489SOL  OW    1465   0.781   3.552   2.302
  489SOL  HW1   1466   0.778   3.606   2.382
  489SOL  HW2   1467   0.723   3.597   2.241
  490SOL  OW    1468   0.748   3.556   2.589
  490SOL  HW1   1469   0.678   3.622   2.595
  490SOL  HW2   1470   0.744   3.510   2.672
  491SOL  OW    1471   0.804   3.513   2.892
  491SOL  HW1   1472   0.869   3.509   2.821
  491SOL  HW2   1473   0.855   3.505   2.972
  492SOL  OW    1474   0.769   3.540   3.231
  492SOL  HW1   1475   0.788   3.446   3.231
  492SOL  HW2   1476   0.718   3.555   3.152
  493SOL  OW    1477   0.764   3.578   3.537
  493SOL  HW1   1478   0.717   3.644   3.487
  493SOL  HW2   1479   0.852   3.578   3.500
  494SOL  OW    1480   0.767   3.532   3.811
  494SOL  HW1   1481   0.782   3.585   3.890
  494SOL  HW2   1482   0.806   3.584   3.741
  495SOL  OW    1483   0.777   3.824   0.165
  495SOL  HW1   1484   0.851   3.809   0.223
  495SOL  HW2   1485   0.711   3.867   0.220
  496SOL  OW    1486   0.733   3.885   0.459
  496SOL  HW1   1487   0.811   3.844   0.420
  496SOL  HW2   1488   0.661   3.825   0.438
  497SOL  OW    1489   0.801   3.844   0.734
  497SOL  HW1   1490   0.743   3.829   0.659
  497SOL  HW2   1491   0.852   3.764   0.741
  498SOL  OW    1492   0.795   3.858   1.099
  498SOL  HW1   1493   0.865   3.839   1.162
  498SOL  HW2   1494   0.779   3.775   1.055
  499SOL  OW    1495   0.763   3.857   1.413
  499SOL  HW1   1496   0.806   3.838   1.497
  499SOL  HW2   1497   0.670   3.853   1.433
  500SOL  OW    1498   0.780   3.834   1.705
  500SOL  HW1   1499   0.839   3.909   1.698
  500SOL  HW2   1500   0.737   3.828   1.620
  501SOL  OW    1501   0.783   3.883   1.990
  501SOL  HW1   1502   0.872   3.868   1.958
  501SOL  HW2   1503   0.735   3.804   1.966
  502SOL  OW    1504   0.763   3.871   2.308
  502SOL  HW1   1505   0.832   3.875   2.375
  502SOL  HW2   1506   0.717   3.789   2.326
  503SOL  OW    1507   0.788   3.843   2.593
  503SOL  HW1   1508   0.710   3.885   2.556
  503SOL  HW2   1509   0.845   3.916   2.618
  504SOL  OW    1510   0.789   3.817   2.899
  504SOL  HW1   1511   0.785   3.817   2.803
  504SOL  HW2   1512   0.878   3.788   2.920
  505SOL  OW    1513   0.779   3.866   3.262
  505SOL  HW1   1514   0.720   3.800   3.297
  505SOL  HW2   1515   0.733   3.949   3.274
  506SOL  OW    1516   0.751   3.815   3.575
  506SOL  HW1   1517   0.828   3.759   3.582
  506SOL  HW2   1518   0.760   3.877   3.648
  507SOL  OW    1519   0.742   3.822   3.829
  507SOL  HW1   1520   0.695   3.892   3.875
  507SOL  HW2   1521   0.724   3.837   3.737
  508SOL  OW    1522   1.079   0.184   0.175
  508SOL  HW1   1523   1.120   0.141   0.250
  508SOL  HW2   1524   1.004   0.129   0.153
  509SOL  OW    1525   1.094   0.128   0.450
  509SOL  HW1   1526   1.041   0.099   0.524
  509SOL  HW2   1527   1.102   0.050   0.395
  510SOL  OW    1528   1.075   0.126   0.751
  510SOL  HW1   1529   1.135   0.116   0.825
  510SOL  HW2   1530   1.078   0.219   0.730
  511SOL  OW    1531   1.062   0.124   1.081
  511SOL  HW1   1532   1.028   0.132   1.170
  511SOL  HW2   1533   1.045   0.209   1.041
  512SOL  OW    1534   1.093   0.119   1.383
  512SOL  HW1   1535   1.008   0.080   1.401
  512SOL  HW2   1536   1.140   0.054   1.331
  513SOL  OW    1537   1.099   0.174   1.718
  513SOL  HW1   1538   1.073   0.257   1.757
  513SOL  HW2   1539   1.017   0.127   1.703
  514SOL  OW    1540   1.073   0.179   1.979
  514SOL  HW1   1541   0.984   0.215   1.984
  514SOL  HW2   1542   1.105   0.185   2.069
  515SOL  OW    1543   1.066   0.128   2.305
  515SOL  HW1   1544   0.974   0.156   2.309
  515SOL  HW2   1545   1.066   0.054   2.245
  516SOL  OW    1546   1.068   0.133   2.636
  516SOL  HW1   1547   1.074   0.088   2.551
  516SOL  HW2   1548   1.046   0.224   2.613
  517SOL  OW    1549   1.062   0.136   2.894
  517SOL  HW1   1550   1.141   0.170   2.936
  517SOL  HW2   1551   1.078   0.148   2.800
  518SOL  OW    1552   1.072   0.138   3.220
  518SOL  HW1   1553   1.124   0.088   3.158
  518SOL  HW2   1554   1.128   0.211   3.245
  519SOL  OW    1555   1.056   0.175   3.573
  519SOL  HW1   1556   0.995   0.240   3.608
  519SOL  HW2   1557   1.066   0.199   3.481
  520SOL  OW    1558   1.077   0.165   3.876
  520SOL  HW1   1559   1.016   0.219   3.824
  520SOL  HW2   1560   1.077   0.080   3.831
  521SOL  OW    1561   1.117   0.471   0.185
  521SOL  HW1   1562   1.052   0.528   0.144
  521SOL  HW2   1563   1.167   0.528   0.243
  522SOL  OW    1564   1.110   0.485   0.458
  522SOL  HW1   1565   1.023   0.498   0.496
  522SOL  HW2   1566   1.170   0.498   0.531
  523SOL  OW    1567   1.043   0.423   0.767
  523SOL  HW1   1568   1.115   0.363   0.791
  523SOL  HW2   1569   1.070   0.460   0.683
  524SOL  OW    1570   1.076   0.454   1.082
  524SOL  HW1   1571   1.102   0.498   1.163
  524SOL  HW2   1572   1.125   0.500   1.014
  525SOL  OW    1573   1.081   0.488   1.353
  525SOL  HW1   1574   1.115   0.446   1.275
  525SOL  HW2   1575   1.159   0.511   1.404
  526SOL  OW    1576   1.055   0.485   1.720
  526SOL  HW1   1577   1.094   0.445   1.798
  526SOL  HW2   1578   0.983   0.539   1.754
  527SOL  OW    1579   1.117   0.491   2.031
  527SOL  HW1   1580   1.193   0.542   2.060
  527SOL  HW2   1581   1.067   0.475   2.112
  528SOL  OW    1582   1.062   0.454   2.289
  528SOL  HW1   1583   0.975   0.463   2.328
  528SOL  HW2   1584   1.085   0.542   2.259
  529SOL  OW    1585   1.085   0.497   2.603
  529SOL  HW1   1586   0.992   0.488   2.586
  529SOL  HW2   1587   1.109   0.416   2.650
  530SOL  OW    1588   1.081   0.445   2.897
  530SOL  HW1   1589   1.066   0.517   2.958
  530SOL  HW2   1590   1.069   0.484   2.810
  531SOL  OW    1591   1.053   0.426   3.267
  531SOL  HW1   1592   0.997   0.350   3.284
  531SOL  HW2   1593   0.991   0.498   3.252
  532SOL  OW    1594   1.069   0.488   3.553
  532SOL  HW1   1595   1.102   0.444   3.631
  532SOL  HW2   1596   1.072   0.581   3.575
  533SOL  OW    1597   1.052   0.436   3.871
  533SOL  HW1   1598   1.070   0.512   3.816
  533SOL  HW2   1599   1.093   0.456   3.955
  534SOL  OW    1600   1.058   0.802   0.125
  534SOL  HW1   1601   1.024   0.756   0.202
  534SOL  HW2   1602   1.019   0.890   0.131
  535SOL  OW    1603   1.091   0.794   0.440
  535SOL  HW1   1604   1.005   0.791   0.482
  535SOL  HW2   1605   1.146   0.736   0.493
  536SOL  OW    1606   1.059   0.806   0.750
  536SOL  HW1   1607   1.066   0.901   0.737
  536SOL  HW2   1608   0.984   0.780   0.697
  537SOL  OW    1609   1.071   0.764   1.057
  537SOL  HW1   1610   1.101   0.833   0.998
  537SOL  HW2   1611   1.074   0.684   1.004
  538SOL  OW    1612   1.099   0.791   1.375
  538SOL  HW1   1613   1.144   0.770   1.456
  538SOL  HW2   1614   1.168   0.819   1.315
  539SOL  OW    1615   1.104   0.746   1.653
  539SOL  HW1   1616   1.182   0.767   1.704
  539SOL  HW2   1617   1.109   0.805   1.577
  540SOL  OW    1618   1.083   0.809   1.963
  540SOL  HW1   1619   1.133   0.856   2.030
  540SOL  HW2   1620   0.998   0.791   2.004
  541SOL  OW    1621   1.054   0.771   2.332
  541SOL  HW1   1622   0.983   0.711   2.308
  541SOL  HW2   1623   1.105   0.722   2.397
  542SOL  OW    1624   1.044   0.761   2.635
  542SOL  HW1   1625   1.023   0.808   2.554
  542SOL  HW2   1626   1.122   0.709   2.613
  543SOL  OW    1627   1.067   0.744   2.899
  543SOL  HW1   1628   1.020   0.772   2.820
  543SOL  HW2   1629   1.061   0.820   2.958
  544SOL  OW    1630   1.070   0.768   3.260
  544SOL  HW1   1631   1.093   0.738   3.348
  544SOL  HW2   1632   1.136   0.833   3.238
  545SOL  OW    1633   1.088   0.784   3.577
  545SOL  HW1   1634   1.094   0.692   3.601
  545SOL  HW2   1635   1.033   0.786   3.499
  546SOL  OW    1636   1.070   0.761   3.880
  546SOL  HW1   1637   1.021   0.702   3.823
  546SOL  HW2   1638   1.037   0.849   3.858
  547SOL  OW    1639   1.057   1.095   0.174
  547SOL  HW1   1640   0.972   1.129   0.204
  547SOL  HW2   1641   1.059   1.117   0.081
  548SOL  OW    1642   1.045   1.074   0.438
  548SOL  HW1   1643   1.067   0.987   0.404
  548SOL  HW2   1644   0.970   1.060   0.496
  549SOL  OW    1645   1.052   1.074   0.752
  549SOL  HW1   1646   1.019   0.996   0.797
  549SOL  HW2   1647   1.124   1.105   0.807
  550SOL  OW    1648   1.101   1.110   1.101
  550SOL  HW1   1649   1.011   1.079   1.113
  550SOL  HW2   1650   1.092   1.195   1.060
  551SOL  OW    1651   1.058   1.059   1.365
  551SOL  HW1   1652   1.022   1.118   1.431
  551SOL  HW2   1653   1.089   0.983   1.415
  552SOL  OW    1654   1.048   1.112   1.684
  552SOL  HW1   1655   1.058   1.018   1.692
  552SOL  HW2   1656   1.007   1.125   1.599
  553SOL  OW    1657   1.055   1.105   1.992
  553SOL  HW1   1658   1.147   1.080   2.003
  553SOL  HW2   1659   1.014   1.026   1.955
  554SOL  OW    1660   1.040   1.050   2.319
  554SOL  HW1   1661   1.038   1.033   2.225
  554SOL  HW2   1662   1.091   1.130   2.328
  555SOL  OW    1663   1.100   1.054   2.649
  555SOL  HW1   1664   1.088   1.020   2.738
  555SOL  HW2   1665   1.018   1.033   2.604
  556SOL  OW    1666   1.105   1.105   2.901
  556SOL  HW1   1667   1.093   1.099   2.807
  556SOL  HW2   1668   1.016   1.100   2.937
  557SOL  OW    1669   1.041   1.106   3.215
  557SOL  HW1   1670   0.954   1.140   3.236
  557SOL  HW2   1671   1.082   1.176   3.163
  558SOL  OW    1672   1.086   1.098   3.509
  558SOL  HW1   1673   0.993   1.091   3.529
  558SOL  HW2   1674   1.130   1.078   3.591
  559SOL  OW    1675   1.099   1.112   3.864
  559SOL  HW1   1676   1.132   1.138   3.951
  559SOL  HW2   1677   1.054   1.029   3.880
  560SOL  OW    1678   1.072   1.415   0.156
  560SOL  HW1   1679   1.024   1.496   0.144
  560SOL  HW2   1680   1.010   1.346   0.133
  561SOL  OW    1681   1.097   1.410   0.481
  561SOL  HW1   1682   1.165   1.351   0.514
  561SOL  HW2   1683   1.059   1.449   0.561
  562SOL  OW    1684   1.060   1.354   0.748
  562SOL  HW1   1685   1.132   1.294   0.767
  562SOL  HW2   1686   1.100   1.426   0.699
  563SOL  OW    1687   1.077   1.385   1.084
  563SOL  HW1   1688   1.105   1.417   1.169
  563SOL  HW2   1689   0.988   1.354   1.098
  564SOL  OW    1690   1.069   1.408   1.418
  564SOL  HW1   1691   1.135   1.445   1.475
  564SOL  HW2   1692   1.021   1.483   1.382
  565SOL  OW    1693   1.057   1.404   1.707
  565SOL  HW1   1694   1.017   1.490   1.701
  565SOL  HW2   1695   1.094   1.389   1.620
  566SOL  OW    1696   1.079   1.360   2.024
  566SOL  HW1   1697   1.104   1.319   2.107
  566SOL  HW2   1698   1.091   1.453   2.038
  567SOL  OW    1699   1.114   1.402   2.341
  567SOL  HW1   1700   1.177   1.474   2.349
  567SOL  HW2   1701   1.153   1.330   2.390
  568SOL  OW    1702   1.116   1.373   2.626
  568SOL  HW1   1703   1.129   1.309   2.556
  568SOL  HW2   1704   1.108   1.457   2.582
  569SOL  OW    1705   1.075   1.424   2.891
  569SOL  HW1   1706   1.101   1.442   2.981
  569SOL  HW2   1707   1.105   1.500   2.841
  570SOL  OW    1708   1.070   1.415   3.213
  570SOL  HW1   1709   1.049   1.381   3.126
  570SOL  HW2   1710   1.092   1.337   3.264
  571SOL  OW    1711   1.100   1.375   3.577
  571SOL  HW1   1712   1.194   1.375   3.558
  571SOL  HW2   1713   1.066   1.452   3.530
  572SOL  OW    1714   1.108   1.369   3.868
  572SOL  HW1   1715   1.123   1.396   3.777
  572SOL  HW2   1716   1.016   1.340   3.869
  573SOL  OW    1717   1.064   1.701   0.167
  573SOL  HW1   1718   0.981   1.663   0.138
  573SOL  HW2   1719   1.049   1.795   0.165
  574SOL  OW    1720   1.103   1.654   0.439
  574SOL  HW1   1721   1.125   1.561   0.431
  574SOL  HW2   1722   1.015   1.661   0.404
  575SOL  OW    1723   1.094   1.697   0.769
  575SOL  HW1   1724   1.152   1.642   0.716
  575SOL  HW2   1725   1.124   1.787   0.752
  576SOL  OW    1726   1.041   1.680   1.106
  576SOL  HW1   1727   1.025   1.704   1.197
  576SOL  HW2   1728   1.019   1.587   1.102
  577SOL  OW    1729   1.039   1.684   1.420
  577SOL  HW1   1730   1.106   1.655   1.358
  577SOL  HW2   1731   0.992   1.753   1.374
  578SOL  OW    1732   1.041   1.712   1.673
  578SOL  HW1   1733   1.118   1.661   1.697
  578SOL  HW2   1734   0.986   1.712   1.751
  579SOL  OW    1735   1.106   1.712   2.031
  579SOL  HW1   1736   1.155   1.630   2.025
  579SOL  HW2   1737   1.162   1.770   2.083
  580SOL  OW    1738   1.054   1.695   2.330
  580SOL  HW1   1739   1.004   1.649   2.398
  580SOL  HW2   1740   0.993   1.703   2.257
  581SOL  OW    1741   1.057   1.671   2.578
  581SOL  HW1   1742   1.099   1.721   2.508
  581SOL  HW2   1743   0.966   1.661   2.549
  582SOL  OW    1744   1.114   1.709   2.934
  582SOL  HW1   1745   1.199   1.725   2.894
  582SOL  HW2   1746   1.134   1.668   3.018
  583SOL  OW    1747   1.096   1.695   3.229
  583SOL  HW1   1748   1.117   1.657   3.143
  583SOL  HW2   1749   1.148   1.644   3.291
  584SOL  OW    1750   1.073   1.704   3.515
  584SOL  HW1   1751   1.112   1.638   3.456
  584SOL  HW2   1752   1.133   1.709   3.589
  585SOL  OW    1753   1.108   1.717   3.834
  585SOL  HW1   1754   1.191   1.686   3.869
  585SOL  HW2   1755   1.094   1.802   3.877
  586SOL  OW    1756   1.083   1.971   0.192
  586SOL  HW1   1757   0.996   1.952   0.157
  586SOL  HW2   1758   1.112   2.048   0.142
  587SOL  OW    1759   1.109   2.034   0.448
  587SOL  HW1   1760   1.186   1.979   0.465
  587SOL  HW2   1761   1.054   2.022   0.525
  588SOL  OW    1762   1.050   1.977   0.736
  588SOL  HW1   1763   0.987   2.033   0.692
  588SOL  HW2   1764   1.026   1.888   0.711
  589SOL  OW    1765   1.047   1.966   1.116
  589SOL  HW1   1766   1.027   1.901   1.184
  589SOL  HW2   1767   0.961   1.999   1.089
  590SOL  OW    1768   1.043   1.971   1.411
  590SOL  HW1   1769   1.017   1.879   1.420
  590SOL  HW2   1770   1.016   1.994   1.322
  591SOL  OW    1771   1.083   2.022   1.703
  591SOL  HW1   1772   1.005   2.004   1.755
  591SOL  HW2   1773   1.093   1.945   1.647
  592SOL  OW    1774   1.107   2.011   2.002
  592SOL  HW1   1775   1.067   1.961   2.072
  592SOL  HW2   1776   1.138   2.091   2.044
  593SOL  OW    1777   1.094   1.996   2.295
  593SOL  HW1   1778   1.024   1.937   2.324
  593SOL  HW2   1779   1.053   2.050   2.228
  594SOL  OW    1780   1.074   1.974   2.639
  594SOL  HW1   1781   1.080   2.028   2.717
  594SOL  HW2   1782   1.123   2.022   2.572
  595SOL  OW    1783   1.058   1.972   2.903
  595SOL  HW1   1784   1.150   1.989   2.885
  595SOL  HW2   1785   1.028   2.049   2.952
  596SOL  OW    1786   1.104   1.986   3.246
  596SOL  HW1   1787   1.099   2.052   3.315
  596SOL  HW2   1788   1.024   1.936   3.255
  597SOL  OW    1789   1.105   1.966   3.560
  597SOL  HW1   1790   1.194   1.986   3.529
  597SOL  HW2   1791   1.072   2.050   3.590
  598SOL  OW    1792   1.062   1.977   3.861
  598SOL  HW1   1793   1.139   1.938   3.901
  598SOL  HW2   1794   1.052   1.932   3.777
  599SOL  OW    1795   1.110   2.291   0.159
  599SOL  HW1   1796   1.195   2.289   0.203
  599SOL  HW2   1797   1.049   2.322   0.227
  600SOL  OW    1798   1.060   2.312   0.471
  600SOL  HW1   1799   1.122   2.357   0.413
  600SOL  HW2   1800   1.048   2.372   0.545
  601SOL  OW    1801   1.086   2.318   0.740
  601SOL  HW1   1802   1.127   2.355   0.662
  601SOL  HW2   1803   1.091   2.387   0.806
  602SOL  OW    1804   1.092   2.322   1.092
  602SOL  HW1   1805   1.048   2.239   1.074
  602SOL  HW2   1806   1.181   2.296   1.118
  603SOL  OW    1807   1.043   2.303   1.377
  603SOL  HW1   1808   0.958   2.278   1.415
  603SOL  HW2   1809   1.097   2.327   1.453
  604SOL  OW    1810   1.044   2.285   1.688
  604SOL  HW1   1811   1.108   2.305   1.619
  604SOL  HW2   1812   0.978   2.354   1.679
  605SOL  OW    1813   1.096   2.287   2.026
  605SOL  HW1   1814   1.038   2.213   2.043
  605SOL  HW2   1815   1.104   2.331   2.111
  606SOL  OW    1816   1.081   2.329   2.305
  606SOL  HW1   1817   1.171   2.352   2.284
  606SOL  HW2   1818   1.089   2.266   2.377
  607SOL  OW    1819   1.077   2.317   2.650
  607SOL  HW1   1820   1.059   2.409   2.671
  607SOL  HW2   1821   0.996   2.271   2.671
  608SOL  OW    1822   1.076   2.310   2.931
  608SOL  HW1   1823   0.981   2.307   2.944
  608SOL  HW2   1824   1.090   2.383   2.871
  609SOL  OW    1825   1.096   2.273   3.232
  609SOL  HW1   1826   1.048   2.194   3.256
  609SOL  HW2   1827   1.096   2.327   3.311
  610SOL  OW    1828   1.075   2.341   3.538
  610SOL  HW1   1829   1.164   2.377   3.534
  610SOL  HW2   1830   1.046   2.340   3.447
  611SOL  OW    1831   1.074   2.345   3.842
  611SOL  HW1   1832   1.065   2.250   3.846
  611SOL  HW2   1833   0.991   2.379   3.875
  612SOL  OW    1834   1.051   2.593   0.121
  612SOL  HW1   1835   1.096   2.645   0.055
  612SOL  HW2   1836   1.104   2.605   0.200
  613SOL  OW    1837   1.037   2.610   0.483
  613SOL  HW1   1838   1.091   2.541   0.522
  613SOL  HW2   1839   1.027   2.675   0.553
  614SOL  OW    1840   1.096   2.578   0.775
  614SOL  HW1   1841   1.150   2.611   0.703
  614SOL  HW2   1842   1.043   2.508   0.735
  615SOL  OW    1843   1.049   2.651   1.050
  615SOL  HW1   1844   0.969   2.692   1.018
  615SOL  HW2   1845   1.050   2.670   1.144
  616SOL  OW    1846   1.087   2.601   1.396
  616SOL  HW1   1847   1.056   2.691   1.408
  616SOL  HW2   1848   1.163   2.594   1.454
  617SOL  OW    1849   1.070   2.636   1.671
  617SOL  HW1   1850   1.068   2.607   1.762
  617SOL  HW2   1851   1.159   2.619   1.642
  618SOL  OW    1852   1.109   2.615   2.020
  618SOL  HW1   1853   1.131   2.681   1.954
  618SOL  HW2   1854   1.192   2.600   2.067
  619SOL  OW    1855   1.105   2.655   2.286
  619SOL  HW1   1856   1.080   2.602   2.210
  619SOL  HW2   1857   1.146   2.593   2.346
  620SOL  OW    1858   1.060   2.595   2.596
  620SOL  HW1   1859   1.155   2.592   2.609
  620SOL  HW2   1860   1.026   2.526   2.653
  621SOL  OW    1861   1.084   2.655   2.962
  621SOL  HW1   1862   1.165   2.667   2.913
  621SOL  HW2   1863   1.048   2.572   2.930
  622SOL  OW    1864   1.079   2.627   3.260
  622SOL  HW1   1865   1.114   2.691   3.198
  622SOL  HW2   1866   1.104   2.542   3.222
  623SOL  OW    1867   1.112   2.592   3.541
  623SOL  HW1   1868   1.016   2.587   3.536
  623SOL  HW2   1869   1.138   2.509   3.582
  624SOL  OW    1870   1.104   2.600   3.841
  624SOL  HW1   1871   1.031   2.554   3.799
  624SOL  HW2   1872   1.122   2.548   3.920
  625SOL  OW    1873   1.116   2.962   0.186
  625SOL  HW1   1874   1.027   2.994   0.203
  625SOL  HW2   1875   1.112   2.868   0.206
  626SOL  OW    1876   1.101   2.905   0.447
  626SOL  HW1   1877   1.196   2.902   0.437
  626SOL  HW2   1878   1.081   2.998   0.458
  627SOL  OW    1879   1.081   2.928   0.770
  627SOL  HW1   1880   1.104   2.979   0.692
  627SOL  HW2   1881   1.147   2.951   0.835
  628SOL  OW    1882   1.088   2.916   1.097
  628SOL  HW1   1883   1.146   2.985   1.065
  628SOL  HW2   1884   1.048   2.879   1.018
  629SOL  OW    1885   1.064   2.910   1.355
  629SOL  HW1   1886   1.089   2.834   1.408
  629SOL  HW2   1887   1.133   2.974   1.370
  630SOL  OW    1888   1.052   2.951   1.688
  630SOL  HW1   1889   1.077   3.033   1.732
  630SOL  HW2   1890   1.117   2.887   1.717
  631SOL  OW    1891   1.055   2.944   2.004
  631SOL  HW1   1892   1.075   2.853   2.025
  631SOL  HW2   1893   1.114   2.995   2.061
  632SOL  OW    1894   1.039   2.908   2.282
  632SOL  HW1   1895   0.988   2.829   2.302
  632SOL  HW2   1896   1.004   2.975   2.341
  633SOL  OW    1897   1.089   2.905   2.581
  633SOL  HW1   1898   1.107   2.814   2.557
  633SOL  HW2   1899   1.108   2.910   2.674
  634SOL  OW    1900   1.041   2.930   2.885
  634SOL  HW1   1901   1.017   2.871   2.957
  634SOL  HW2   1902   1.122   2.972   2.914
  635SOL  OW    1903   1.105   2.896   3.239
  635SOL  HW1   1904   1.009   2.898   3.239
  635SOL  HW2   1905   1.126   2.806   3.264
  636SOL  OW    1906   1.072   2.919   3.504
  636SOL  HW1   1907   1.080   2.829   3.538
  636SOL  HW2   1908   1.120   2.972   3.568
  637SOL  OW    1909   1.101   2.955   3.807
  637SOL  HW1   1910   1.112   3.011   3.731
  637SOL  HW2   1911   1.091   2.867   3.771
  638SOL  OW    1912   1.051   3.263   0.158
  638SOL  HW1   1913   1.095   3.199   0.102
  638SOL  HW2   1914   1.105   3.267   0.237
  639SOL  OW    1915   1.049   3.207   0.474
  639SOL  HW1   1916   1.095   3.220   0.557
  639SOL  HW2   1917   1.117   3.215   0.408
  640SOL  OW    1918   1.095   3.239   0.805
  640SOL  HW1   1919   1.082   3.256   0.899
  640SOL  HW2   1920   1.081   3.144   0.797
  641SOL  OW    1921   1.076   3.215   1.075
  641SOL  HW1   1922   0.994   3.259   1.056
  641SOL  HW2   1923   1.138   3.286   1.094
  642SOL  OW    1924   1.066   3.209   1.348
  642SOL  HW1   1925   1.050   3.300   1.323
  642SOL  HW2   1926   1.153   3.209   1.388
  643SOL  OW    1927   1.065   3.248   1.654
  643SOL  HW1   1928   1.142   3.271   1.706
  643SOL  HW2   1929   1.088   3.164   1.613
  644SOL  OW    1930   1.072   3.242   2.009
  644SOL  HW1   1931   0.982   3.231   1.978
  644SOL  HW2   1932   1.086   3.337   2.008
  645SOL  OW    1933   1.099   3.256   2.325
  645SOL  HW1   1934   1.062   3.269   2.237
  645SOL  HW2   1935   1.176   3.312   2.327
  646SOL  OW    1936   1.045   3.229   2.624
  646SOL  HW1   1937   0.970   3.193   2.577
  646SOL  HW2   1938   1.023   3.218   2.716
  647SOL  OW    1939   1.057   3.194   2.901
  647SOL  HW1   1940   1.101   3.272   2.935
  647SOL  HW2   1941   1.124   3.127   2.900
  648SOL  OW    1942   1.073   3.224   3.205
  648SOL  HW1   1943   1.161   3.188   3.218
  648SOL  HW2   1944   1.041   3.240   3.294
  649SOL  OW    1945   1.103   3.265   3.515
  649SOL  HW1   1946   1.130   3.334   3.454
  649SOL  HW2   1947   1.149   3.187   3.484
  650SOL  OW    1948   1.111   3.192   3.880
  650SOL  HW1   1949   1.190   3.148   3.912
  650SOL  HW2   1950   1.099   3.159   3.791
  651SOL  OW    1951   1.113   3.499   0.175
  651SOL  HW1   1952   1.190   3.453   0.142
  651SOL  HW2   1953   1.041   3.437   0.164
  652SOL  OW    1954   1.115   3.571   0.499
  652SOL  HW1   1955   1.165   3.602   0.424
  652SOL  HW2   1956   1.162   3.604   0.575
  653SOL  OW    1957   1.081   3.505   0.797
  653SOL  HW1   1958   1.093   3.596   0.770
  653SOL  HW2   1959   1.037   3.511   0.882
  654SOL  OW    1960   1.086   3.548   1.070
  654SOL  HW1   1961   1.019   3.593   1.019
  654SOL  HW2   1962   1.082   3.589   1.157
  655SOL  OW    1963   1.083   3.511   1.404
  655SOL  HW1   1964   1.059   3.469   1.487
  655SOL  HW2   1965   1.014   3.576   1.389
  656SOL  OW    1966   1.043   3.557   1.720
  656SOL  HW1   1967   1.037   3.586   1.811
  656SOL  HW2   1968   0.956   3.573   1.685
  657SOL  OW    1969   1.075   3.539   1.985
  657SOL  HW1   1970   1.018   3.478   2.032
  657SOL  HW2   1971   1.055   3.524   1.892
  658SOL  OW    1972   1.114   3.557   2.297
  658SOL  HW1   1973   1.019   3.559   2.301
  658SOL  HW2   1974   1.135   3.488   2.235
  659SOL  OW    1975   1.051   3.516   2.612
  659SOL  HW1   1976   1.114   3.475   2.672
  659SOL  HW2   1977   1.040   3.605   2.646
  660SOL  OW    1978   1.112   3.557   2.900
  660SOL  HW1   1979   1.056   3.634   2.891
  660SOL  HW2   1980   1.080   3.513   2.979
  661SOL  OW    1981   1.106   3.529   3.259
  661SOL  HW1   1982   1.041   3.531   3.330
  661SOL  HW2   1983   1.138   3.439   3.259
  662SOL  OW    1984   1.056   3.548   3.573
  662SOL  HW1   1985   1.110   3.470   3.586
  662SOL  HW2   1986   0.967   3.515   3.565
  663SOL  OW    1987   1.058   3.554   3.885
  663SOL  HW1   1988   1.096   3.598   3.961
  663SOL  HW2   1989   1.132   3.517   3.838
  664SOL  OW    1990   1.049   3.813   0.168
  664SOL  HW1   1991   1.087   3.895   0.136
  664SOL  HW2   1992   0.954   3.828   0.167
  665SOL  OW    1993   1.064   3.812   0.460
  665SOL  HW1   1994   1.015   3.809   0.542
  665SOL  HW2   1995   1.114   3.730   0.459
  666SOL  OW    1996   1.097   3.829   0.756
  666SOL  HW1   1997   1.095   3.733   0.755
  666SOL  HW2   1998   1.189   3.851   0.742
  667SOL  OW    1999   1.105   3.848   1.104
  667SOL  HW1   2000   1.014   3.830   1.128
  667SOL  HW2   2001   1.107   3.942   1.087
  668SOL  OW    2002   1.073   3.882   1.397
  668SOL  HW1   2003   1.075   3.792   1.427
  668SOL  HW2   2004   0.986   3.893   1.357
  669SOL  OW    2005   1.046   3.877   1.691
  669SOL  HW1   2006   0.966   3.910   1.652
  669SOL  HW2   2007   1.017   3.828   1.768
  670SOL  OW    2008   1.048   3.818   2.015
  670SOL  HW1   2009   1.139   3.835   1.988
  670SOL  HW2   2010   1.009   3.905   2.021
  671SOL  OW    2011   1.041   3.829   2.279
  671SOL  HW1   2012   1.128   3.804   2.250
  671SOL  HW2   2013   0.987   3.752   2.261
  672SOL  OW    2014   1.072   3.839   2.617
  672SOL  HW1   2015   1.006   3.865   2.681
  672SOL  HW2   2016   1.040   3.874   2.534
  673SOL  OW    2017   1.059   3.809   2.932
  673SOL  HW1   2018   0.976   3.772   2.961
  673SOL  HW2   2019   1.040   3.849   2.848
  674SOL  OW    2020   1.067   3.858   3.199
  674SOL  HW1   2021   1.106   3.775   3.174
  674SOL  HW2   2022   1.114   3.883   3.279
  675SOL  OW    2023   1.038   3.826   3.535
  675SOL  HW1   2024   0.990   3.810   3.454
  675SOL  HW2   2025   1.118   3.774   3.526
  676SOL  OW    2026   1.068   3.871   3.836
  676SOL  HW1   2027   1.026   3.883   3.921
  676SOL  HW2   2028   1.064   3.957   3.795
  677SOL  OW    2029   1.387   0.161   0.116
  677SOL  HW1   2030   1.329   0.232   0.145
  677SOL  HW2   2031   1.389   0.100   0.189
  678SOL  OW    2032   1.386   0.141   0.455
  678SOL  HW1   2033   1.402   0.091   0.535
  678SOL  HW2   2034   1.473   0.155   0.417
  679SOL  OW    2035   1.353   0.176   0.805
  679SOL  HW1   2036   1.424   0.160   0.743
  679SOL  HW2   2037   1.314   0.090   0.820
  680SOL  OW    2038   1.346   0.162   1.098
  680SOL  HW1   2039   1.433   0.158   1.138
  680SOL  HW2   2040   1.302   0.233   1.144
  681SOL  OW    2041   1.367   0.177   1.395
  681SOL  HW1   2042   1.422   0.134   1.329
  681SOL  HW2   2043   1.311   0.237   1.346
  682SOL  OW    2044   1.419   0.192   1.656
  682SOL  HW1   2045   1.454   0.141   1.729
  682SOL  HW2   2046   1.457   0.152   1.578
  683SOL  OW    2047   1.380   0.158   1.972
  683SOL  HW1   2048   1.358   0.250   1.983
  683SOL  HW2   2049   1.476   0.156   1.969
  684SOL  OW    2050   1.372   0.193   2.269
  684SOL  HW1   2051   1.342   0.259   2.332
  684SOL  HW2   2052   1.424   0.132   2.321
  685SOL  OW    2053   1.381   0.181   2.601
  685SOL  HW1   2054   1.470   0.162   2.629
  685SOL  HW2   2055   1.390   0.246   2.532
  686SOL  OW    2056   1.383   0.192   2.921
  686SOL  HW1   2057   1.357   0.283   2.908
  686SOL  HW2   2058   1.316   0.141   2.875
  687SOL  OW    2059   1.355   0.118   3.266
  687SOL  HW1   2060   1.275   0.090   3.223
  687SOL  HW2   2061   1.349   0.214   3.268
  688SOL  OW    2062   1.366   0.154   3.506
  688SOL  HW1   2063   1.313   0.074   3.502
  688SOL  HW2   2064   1.409   0.159   3.420
  689SOL  OW    2065   1.379   0.188   3.846
  689SOL  HW1   2066   1.405   0.103   3.813
  689SOL  HW2   2067   1.440   0.250   3.806
  690SOL  OW    2068   1.422   0.442   0.154
  690SOL  HW1   2069   1.405   0.510   0.220
  690SOL  HW2   2070   1.394   0.481   0.071
  691SOL  OW    2071   1.413   0.457   0.444
  691SOL  HW1   2072   1.445   0.531   0.495
  691SOL  HW2   2073   1.402   0.387   0.508
  692SOL  OW    2074   1.413   0.453   0.772
  692SOL  HW1   2075   1.371   0.375   0.809
  692SOL  HW2   2076   1.506   0.431   0.771
  693SOL  OW    2077   1.423   0.436   1.061
  693SOL  HW1   2078   1.339   0.408   1.025
  693SOL  HW2   2079   1.400   0.508   1.120
  694SOL  OW    2080   1.347   0.453   1.361
  694SOL  HW1   2081   1.438   0.435   1.336
  694SOL  HW2   2082   1.302   0.369   1.350
  695SOL  OW    2083   1.399   0.436   1.706
  695SOL  HW1   2084   1.380   0.434   1.613
  695SOL  HW2   2085   1.490   0.406   1.713
  696SOL  OW    2086   1.366   0.450   1.988
  696SOL  HW1   2087   1.288   0.424   1.938
  696SOL  HW2   2088   1.335   0.457   2.078
  697SOL  OW    2089   1.402   0.459   2.297
  697SOL  HW1   2090   1.417   0.516   2.221
  697SOL  HW2   2091   1.311   0.430   2.287
  698SOL  OW    2092   1.413   0.467   2.592
  698SOL  HW1   2093   1.428   0.468   2.687
  698SOL  HW2   2094   1.319   0.453   2.584
  699SOL  OW    2095   1.417   0.449   2.886
  699SOL  HW1   2096   1.419   0.443   2.982
  699SOL  HW2   2097   1.484   0.388   2.857
  700SOL  OW    2098   1.384   0.431   3.210
  700SOL  HW1   2099   1.319   0.371   3.246
  700SOL  HW2   2100   1.467   0.405   3.250
  701SOL  OW    2101   1.404   0.432   3.563
  701SOL  HW1   2102   1.396   0.511   3.509
  701SOL  HW2   2103   1.435   0.365   3.502
  702SOL  OW    2104   1.420   0.470   3.863
  702SOL  HW1   2105   1.374   0.411   3.923
  702SOL  HW2   2106   1.352   0.498   3.801
  703SOL  OW    2107   1.402   0.809   0.141
  703SOL  HW1   2108   1.425   0.901   0.139
  703SOL  HW2   2109   1.446   0.771   0.065
  704SOL  OW    2110   1.358   0.771   0.464
  704SOL  HW1   2111   1.405   0.798   0.543
  704SOL  HW2   2112   1.425   0.763   0.397
  705SOL  OW    2113   1.359   0.778   0.730
  705SOL  HW1   2114   1.446   0.756   0.764
  705SOL  HW2   2115   1.369   0.865   0.691
  706SOL  OW    2116   1.419   0.750   1.040
  706SOL  HW1   2117   1.497   0.777   0.993
  706SOL  HW2   2118   1.373   0.692   0.980
  707SOL  OW    2119   1.353   0.748   1.367
  707SOL  HW1   2120   1.346   0.807   1.442
  707SOL  HW2   2121   1.446   0.752   1.342
  708SOL  OW    2122   1.347   0.752   1.668
  708SOL  HW1   2123   1.314   0.666   1.695
  708SOL  HW2   2124   1.278   0.813   1.691
  709SOL  OW    2125   1.375   0.760   1.987
  709SOL  HW1   2126   1.455   0.710   1.972
  709SOL  HW2   2127   1.310   0.718   1.931
  710SOL  OW    2128   1.371   0.736   2.270
  710SOL  HW1   2129   1.355   0.689   2.188
  710SOL  HW2   2130   1.378   0.828   2.244
  711SOL  OW    2131   1.361   0.790   2.655
  711SOL  HW1   2132   1.364   0.876   2.614
  711SOL  HW2   2133   1.362   0.807   2.749
  712SOL  OW    2134   1.419   0.770   2.926
  712SOL  HW1   2135   1.342   0.801   2.973
  712SOL  HW2   2136   1.493   0.800   2.978
  713SOL  OW    2137   1.370   0.791   3.252
  713SOL  HW1   2138   1.464   0.805   3.246
  713SOL  HW2   2139   1.335   0.827   3.170
  714SOL  OW    2140   1.412   0.801   3.533
  714SOL  HW1   2141   1.458   0.738   3.589
  714SOL  HW2   2142   1.482   0.844   3.485
  715SOL  OW    2143   1.406   0.794   3.831
  715SOL  HW1   2144   1.419   0.803   3.925
  715SOL  HW2   2145   1.406   0.884   3.798
  716SOL  OW    2146   1.419   1.044   0.193
  716SOL  HW1   2147   1.396   1.071   0.104
  716SOL  HW2   2148   1.416   1.126   0.244
  717SOL  OW    2149   1.406   1.044   0.474
  717SOL  HW1   2150   1.472   1.042   0.405
  717SOL  HW2   2151   1.324   1.060   0.428
  718SOL  OW    2152   1.347   1.099   0.793
  718SOL  HW1   2153   1.372   1.006   0.792
  718SOL  HW2   2154   1.414   1.141   0.847
  719SOL  OW    2155   1.393   1.105   1.045
  719SOL  HW1   2156   1.399   1.195   1.013
  719SOL  HW2   2157   1.449   1.103   1.122
  720SOL  OW    2158   1.367   1.070   1.348
  720SOL  HW1   2159   1.300   1.071   1.279
  720SOL  HW2   2160   1.318   1.048   1.428
  721SOL  OW    2161   1.380   1.058   1.684
  721SOL  HW1   2162   1.394   1.151   1.663
  721SOL  HW2   2163   1.416   1.048   1.772
  722SOL  OW    2164   1.379   1.107   1.982
  722SOL  HW1   2165   1.440   1.042   2.015
  722SOL  HW2   2166   1.393   1.108   1.887
  723SOL  OW    2167   1.416   1.071   2.294
  723SOL  HW1   2168   1.492   1.057   2.351
  723SOL  HW2   2169   1.439   1.027   2.212
  724SOL  OW    2170   1.385   1.070   2.596
  724SOL  HW1   2171   1.339   1.154   2.595
  724SOL  HW2   2172   1.391   1.045   2.504
  725SOL  OW    2173   1.385   1.049   2.911
  725SOL  HW1   2174   1.363   1.139   2.934
  725SOL  HW2   2175   1.308   1.017   2.864
  726SOL  OW    2176   1.390   1.070   3.257
  726SOL  HW1   2177   1.328   1.123   3.306
  726SOL  HW2   2178   1.425   1.008   3.321
  727SOL  OW    2179   1.365   1.115   3.561
  727SOL  HW1   2180   1.442   1.129   3.506
  727SOL  HW2   2181   1.323   1.037   3.524
  728SOL  OW    2182   1.422   1.104   3.818
  728SOL  HW1   2183   1.360   1.171   3.789
  728SOL  HW2   2184   1.393   1.080   3.905
  729SOL  OW    2185   1.387   1.358   0.179
  729SOL  HW1   2186   1.442   1.357   0.101
  729SOL  HW2   2187   1.437   1.310   0.245
  730SOL  OW    2188   1.391   1.366   0.496
  730SOL  HW1   2189   1.329   1.394   0.429
  730SOL  HW2   2190   1.379   1.271   0.502
  731SOL  OW    2191   1.354   1.390   0.787
  731SOL  HW1   2192   1.315   1.414   0.871
  731SOL  HW2   2193   1.432   1.339   0.810
  732SOL  OW    2194   1.349   1.392   1.102
  732SOL  HW1   2195   1.336   1.452   1.028
  732SOL  HW2   2196   1.265   1.348   1.113
  733SOL  OW    2197   1.350   1.386   1.365
  733SOL  HW1   2198   1.306   1.376   1.281
  733SOL  HW2   2199   1.301   1.455   1.410
  734SOL  OW    2200   1.398   1.354   1.727
  734SOL  HW1   2201   1.374   1.383   1.815
  734SOL  HW2   2202   1.367   1.264   1.722
  735SOL  OW    2203   1.416   1.359   1.986
  735SOL  HW1   2204   1.355   1.425   1.952
  735SOL  HW2   2205   1.361   1.298   2.034
  736SOL  OW    2206   1.392   1.402   2.303
  736SOL  HW1   2207   1.349   1.455   2.371
  736SOL  HW2   2208   1.451   1.463   2.259
  737SOL  OW    2209   1.357   1.353   2.655
  737SOL  HW1   2210   1.419   1.423   2.674
  737SOL  HW2   2211   1.343   1.358   2.561
  738SOL  OW    2212   1.381   1.414   2.922
  738SOL  HW1   2213   1.395   1.422   2.827
  738SOL  HW2   2214   1.436   1.341   2.949
  739SOL  OW    2215   1.418   1.352   3.200
  739SOL  HW1   2216   1.417   1.296   3.122
  739SOL  HW2   2217   1.409   1.441   3.166
  740SOL  OW    2218   1.419   1.420   3.524
  740SOL  HW1   2219   1.399   1.327   3.524
  740SOL  HW2   2220   1.398   1.450   3.612
  741SOL  OW    2221   1.373   1.381   3.839
  741SOL  HW1   2222   1.444   1.317   3.832
  741SOL  HW2   2223   1.297   1.330   3.867
  742SOL  OW    2224   1.360   1.724   0.134
  742SOL  HW1   2225   1.396   1.677   0.059
  742SOL  HW2   2226   1.289   1.668   0.165
  743SOL  OW    2227   1.401   1.658   0.425
  743SOL  HW1   2228   1.345   1.580   0.419
  743SOL  HW2   2229   1.362   1.710   0.495
  744SOL  OW    2230   1.397   1.679   0.782
  744SOL  HW1   2231   1.463   1.682   0.713
  744SOL  HW2   2232   1.407   1.763   0.827
  745SOL  OW    2233   1.352   1.728   1.097
  745SOL  HW1   2234   1.270   1.681   1.107
  745SOL  HW2   2235   1.359   1.782   1.176
  746SOL  OW    2236   1.415   1.663   1.370
  746SOL  HW1   2237   1.447   1.624   1.451
  746SOL  HW2   2238   1.336   1.711   1.396
  747SOL  OW    2239   1.374   1.695   1.676
  747SOL  HW1   2240   1.305   1.711   1.612
  747SOL  HW2   2241   1.426   1.625   1.638
  748SOL  OW    2242   1.349   1.682   1.980
  748SOL  HW1   2243   1.328   1.607   2.036
  748SOL  HW2   2244   1.433   1.659   1.941
  749SOL  OW    2245   1.375   1.668   2.289
  749SOL  HW1   2246   1.406   1.596   2.234
  749SOL  HW2   2247   1.400   1.643   2.378
  750SOL  OW    2248   1.395   1.683   2.603
  750SOL  HW1   2249   1.434   1.700   2.689
  750SOL  HW2   2250   1.451   1.617   2.563
  751SOL  OW    2251   1.387   1.714   2.913
  751SOL  HW1   2252   1.355   1.661   2.841
  751SOL  HW2   2253   1.483   1.714   2.903
  752SOL  OW    2254   1.392   1.730   3.233
  752SOL  HW1   2255   1.327   1.690   3.175
  752SOL  HW2   2256   1.344   1.749   3.313
  753SOL  OW    2257   1.417   1.716   3.503
  753SOL  HW1   2258   1.325   1.720   3.529
  753SOL  HW2   2259   1.458   1.790   3.547
  754SOL  OW    2260   1.379   1.708   3.885
  754SOL  HW1   2261   1.392   1.803   3.885
  754SOL  HW2   2262   1.419   1.678   3.803
  755SOL  OW    2263   1.381   1.967   0.159
  755SOL  HW1   2264   1.327   1.992   0.233
  755SOL  HW2   2265   1.369   2.038   0.095
  756SOL  OW    2266   1.355   2.020   0.462
  756SOL  HW1   2267   1.384   2.055   0.546
  756SOL  HW2   2268   1.293   1.950   0.485
  757SOL  OW    2269   1.402   2.030   0.780
  757SOL  HW1   2270   1.461   1.954   0.786
  757SOL  HW2   2271   1.437   2.080   0.706
  758SOL  OW    2272   1.394   2.020   1.104
  758SOL  HW1   2273   1.394   1.934   1.146
  758SOL  HW2   2274   1.301   2.037   1.085
  759SOL  OW    2275   1.414   1.963   1.389
  759SOL  HW1   2276   1.488   2.019   1.365
  759SOL  HW2   2277   1.352   1.973   1.317
  760SOL  OW    2278   1.362   2.029   1.704
  760SOL  HW1   2279   1.457   2.039   1.699
  760SOL  HW2   2280   1.331   2.110   1.744
  761SOL  OW    2281   1.378   1.975   1.987
  761SOL  HW1   2282   1.427   2.008   1.912
  761SOL  HW2   2283   1.308   1.922   1.949
  762SOL  OW    2284   1.401   1.976   2.275
  762SOL  HW1   2285   1.460   1.951   2.204
  762SOL  HW2   2286   1.357   1.895   2.300
  763SOL  OW    2287   1.416   2.021   2.591
  763SOL  HW1   2288   1.399   2.109   2.556
  763SOL  HW2   2289   1.350   1.966   2.550
  764SOL  OW    2290   1.368   2.038   2.940
  764SOL  HW1   2291   1.300   2.101   2.964
  764SOL  HW2   2292   1.380   1.985   3.018
  765SOL  OW    2293   1.393   1.985   3.215
  765SOL  HW1   2294   1.445   1.933   3.277
  765SOL  HW2   2295   1.360   1.920   3.153
  766SOL  OW    2296   1.348   2.018   3.502
  766SOL  HW1   2297   1.381   1.953   3.440
  766SOL  HW2   2298   1.348   1.974   3.587
  767SOL  OW    2299   1.345   2.018   3.882
  767SOL  HW1   2300   1.345   1.926   3.855
  767SOL  HW2   2301   1.367   2.016   3.975
  768SOL  OW    2302   1.405   2.305   0.153
  768SOL  HW1   2303   1.330   2.364   0.163
  768SOL  HW2   2304   1.379   2.246   0.082
  769SOL  OW    2305   1.380   2.294   0.463
  769SOL  HW1   2306   1.421   2.213   0.494
  769SOL  HW2   2307   1.406   2.301   0.372
  770SOL  OW    2308   1.379   2.316   0.801
  770SOL  HW1   2309   1.449   2.379   0.816
  770SOL  HW2   2310   1.390   2.289   0.710
  771SOL  OW    2311   1.424   2.274   1.068
  771SOL  HW1   2312   1.382   2.288   1.153
  771SOL  HW2   2313   1.410   2.181   1.049
  772SOL  OW    2314   1.359   2.296   1.368
  772SOL  HW1   2315   1.276   2.248   1.373
  772SOL  HW2   2316   1.410   2.249   1.301
  773SOL  OW    2317   1.359   2.329   1.692
  773SOL  HW1   2318   1.300   2.296   1.760
  773SOL  HW2   2319   1.310   2.316   1.610
  774SOL  OW    2320   1.418   2.270   1.965
  774SOL  HW1   2321   1.499   2.270   1.913
  774SOL  HW2   2322   1.424   2.350   2.017
  775SOL  OW    2323   1.377   2.274   2.289
  775SOL  HW1   2324   1.421   2.327   2.355
  775SOL  HW2   2325   1.398   2.317   2.206
  776SOL  OW    2326   1.423   2.284   2.591
  776SOL  HW1   2327   1.370   2.290   2.512
  776SOL  HW2   2328   1.456   2.374   2.605
  777SOL  OW    2329   1.391   2.308   2.930
  777SOL  HW1   2330   1.346   2.310   2.845
  777SOL  HW2   2331   1.319   2.307   2.993
  778SOL  OW    2332   1.375   2.334   3.202
  778SOL  HW1   2333   1.307   2.266   3.210
  778SOL  HW2   2334   1.447   2.290   3.157
  779SOL  OW    2335   1.379   2.323   3.568
  779SOL  HW1   2336   1.318   2.395   3.582
  779SOL  HW2   2337   1.459   2.350   3.612
  780SOL  OW    2338   1.374   2.313   3.812
  780SOL  HW1   2339   1.445   2.303   3.748
  780SOL  HW2   2340   1.380   2.404   3.840
  781SOL  OW    2341   1.358   2.581   0.172
  781SOL  HW1   2342   1.371   2.658   0.117
  781SOL  HW2   2343   1.425   2.519   0.143
  782SOL  OW    2344   1.368   2.633   0.427
  782SOL  HW1   2345   1.415   2.635   0.510
  782SOL  HW2   2346   1.277   2.614   0.451
  783SOL  OW    2347   1.414   2.642   0.736
  783SOL  HW1   2348   1.488   2.596   0.699
  783SOL  HW2   2349   1.352   2.573   0.759
  784SOL  OW    2350   1.347   2.580   1.105
  784SOL  HW1   2351   1.438   2.592   1.081
  784SOL  HW2   2352   1.312   2.519   1.040
  785SOL  OW    2353   1.363   2.619   1.379
  785SOL  HW1   2354   1.273   2.636   1.354
  785SOL  HW2   2355   1.359   2.593   1.471
  786SOL  OW    2356   1.408   2.614   1.692
  786SOL  HW1   2357   1.354   2.552   1.740
  786SOL  HW2   2358   1.497   2.578   1.697
  787SOL  OW    2359   1.424   2.587   2.026
  787SOL  HW1   2360   1.427   2.495   2.002
  787SOL  HW2   2361   1.510   2.621   2.003
  788SOL  OW    2362   1.349   2.614   2.339
  788SOL  HW1   2363   1.392   2.552   2.398
  788SOL  HW2   2364   1.340   2.694   2.390
  789SOL  OW    2365   1.398   2.630   2.596
  789SOL  HW1   2366   1.483   2.651   2.559
  789SOL  HW2   2367   1.391   2.685   2.674
  790SOL  OW    2368   1.378   2.605   2.925
  790SOL  HW1   2369   1.382   2.566   3.012
  790SOL  HW2   2370   1.376   2.530   2.865
  791SOL  OW    2371   1.382   2.602   3.215
  791SOL  HW1   2372   1.477   2.597   3.215
  791SOL  HW2   2373   1.361   2.682   3.264
  792SOL  OW    2374   1.365   2.605   3.510
  792SOL  HW1   2375   1.447   2.578   3.470
  792SOL  HW2   2376   1.347   2.691   3.473
  793SOL  OW    2377   1.414   2.624   3.817
  793SOL  HW1   2378   1.488   2.576   3.856
  793SOL  HW2   2379   1.401   2.699   3.874
  794SOL  OW    2380   1.400   2.951   0.133
  794SOL  HW1   2381   1.392   2.896   0.055
  794SOL  HW2   2382   1.323   2.929   0.185
  795SOL  OW    2383   1.357   2.884   0.425
  795SOL  HW1   2384   1.443   2.843   0.434
  795SOL  HW2   2385   1.308   2.824   0.369
  796SOL  OW    2386   1.406   2.962   0.733
  796SOL  HW1   2387   1.409   2.867   0.741
  796SOL  HW2   2388   1.415   2.995   0.822
  797SOL  OW    2389   1.404   2.889   1.084
  797SOL  HW1   2390   1.410   2.980   1.056
  797SOL  HW2   2391   1.316   2.880   1.120
  798SOL  OW    2392   1.405   2.912   1.345
  798SOL  HW1   2393   1.389   3.006   1.351
  798SOL  HW2   2394   1.353   2.875   1.417
  799SOL  OW    2395   1.392   2.962   1.673
  799SOL  HW1   2396   1.344   2.888   1.637
  799SOL  HW2   2397   1.335   3.038   1.657
  800SOL  OW    2398   1.360   2.893   2.004
  800SOL  HW1   2399   1.424   2.860   1.941
  800SOL  HW2   2400   1.319   2.815   2.041
  801SOL  OW    2401   1.392   2.946   2.328
  801SOL  HW1   2402   1.445   2.867   2.325
  801SOL  HW2   2403   1.414   2.992   2.246
  802SOL  OW    2404   1.416   2.948   2.595
  802SOL  HW1   2405   1.418   3.041   2.614
  802SOL  HW2   2406   1.439   2.906   2.678
  803SOL  OW    2407   1.389   2.907   2.909
  803SOL  HW1   2408   1.452   2.969   2.946
  803SOL  HW2   2409   1.335   2.882   2.984
  804SOL  OW    2410   1.419   2.938   3.269
  804SOL  HW1   2411   1.328   2.954   3.243
  804SOL  HW2   2412   1.438   2.850   3.234
  805SOL  OW    2413   1.378   2.926   3.537
  805SOL  HW1   2414   1.346   2.982   3.466
  805SOL  HW2   2415   1.414   2.849   3.494
  806SOL  OW    2416   1.353   2.902   3.848
  806SOL  HW1   2417   1.379   2.837   3.783
  806SOL  HW2   2418   1.407   2.881   3.925
  807SOL  OW    2419   1.350   3.265   0.124
  807SOL  HW1   2420   1.330   3.209   0.049
  807SOL  HW2   2421   1.393   3.207   0.187
  808SOL  OW    2422   1.360   3.252   0.429
  808SOL  HW1   2423   1.387   3.167   0.395
  808SOL  HW2   2424   1.266   3.255   0.417
  809SOL  OW    2425   1.417   3.249   0.735
  809SOL  HW1   2426   1.349   3.274   0.798
  809SOL  HW2   2427   1.391   3.161   0.707
  810SOL  OW    2428   1.400   3.241   1.098
  810SOL  HW1   2429   1.406   3.265   1.190
  810SOL  HW2   2430   1.306   3.239   1.079
  811SOL  OW    2431   1.411   3.248   1.392
  811SOL  HW1   2432   1.334   3.224   1.443
  811SOL  HW2   2433   1.484   3.205   1.435
  812SOL  OW    2434   1.370   3.247   1.729
  812SOL  HW1   2435   1.308   3.252   1.656
  812SOL  HW2   2436   1.317   3.261   1.807
  813SOL  OW    2437   1.392   3.244   1.995
  813SOL  HW1   2438   1.376   3.161   1.950
  813SOL  HW2   2439   1.376   3.311   1.928
  814SOL  OW    2440   1.405   3.271   2.281
  814SOL  HW1   2441   1.432   3.216   2.354
  814SOL  HW2   2442   1.434   3.359   2.305
  815SOL  OW    2443   1.361   3.234   2.614
  815SOL  HW1   2444   1.305   3.197   2.683
  815SOL  HW2   2445   1.340   3.182   2.536
  816SOL  OW    2446   1.390   3.195   2.915
  816SOL  HW1   2447   1.321   3.182   2.980
  816SOL  HW2   2448   1.392   3.113   2.865
  817SOL  OW    2449   1.391   3.238   3.243
  817SOL  HW1   2450   1.460   3.172   3.234
  817SOL  HW2   2451   1.342   3.232   3.161
  818SOL  OW    2452   1.402   3.242   3.562
  818SOL  HW1   2453   1.451   3.250   3.643
  818SOL  HW2   2454   1.439   3.310   3.505
  819SOL  OW    2455   1.395   3.234   3.855
  819SOL  HW1   2456   1.365   3.143   3.863
  819SOL  HW2   2457   1.466   3.230   3.791
  820SOL  OW    2458   1.353   3.520   0.156
  820SOL  HW1   2459   1.414   3.451   0.183
  820SOL  HW2   2460   1.286   3.475   0.104
  821SOL  OW    2461   1.414   3.553   0.429
  821SOL  HW1   2462   1.354   3.626   0.438
  821SOL  HW2   2463   1.444   3.535   0.518
  822SOL  OW    2464   1.392   3.516   0.788
  822SOL  HW1   2465   1.299   3.518   0.809
  822SOL  HW2   2466   1.434   3.483   0.868
  823SOL  OW    2467   1.411   3.546   1.084
  823SOL  HW1   2468   1.451   3.585   1.006
  823SOL  HW2   2469   1.370   3.465   1.053
  824SOL  OW    2470   1.372   3.534   1.414
  824SOL  HW1   2471   1.306   3.578   1.468
  824SOL  HW2   2472   1.386   3.450   1.457
  825SOL  OW    2473   1.402   3.540   1.682
  825SOL  HW1   2474   1.370   3.594   1.610
  825SOL  HW2   2475   1.344   3.464   1.682
  826SOL  OW    2476   1.349   3.510   1.975
  826SOL  HW1   2477   1.425   3.528   1.920
  826SOL  HW2   2478   1.362   3.564   2.053
  827SOL  OW    2479   1.374   3.574   2.308
  827SOL  HW1   2480   1.465   3.597   2.331
  827SOL  HW2   2481   1.363   3.606   2.219
  828SOL  OW    2482   1.363   3.507   2.602
  828SOL  HW1   2483   1.296   3.552   2.552
  828SOL  HW2   2484   1.337   3.518   2.694
  829SOL  OW    2485   1.410   3.529   2.945
  829SOL  HW1   2486   1.454   3.446   2.928
  829SOL  HW2   2487   1.430   3.549   3.036
  830SOL  OW    2488   1.409   3.507   3.239
  830SOL  HW1   2489   1.348   3.434   3.235
  830SOL  HW2   2490   1.491   3.472   3.205
  831SOL  OW    2491   1.421   3.531   3.503
  831SOL  HW1   2492   1.480   3.606   3.505
  831SOL  HW2   2493   1.420   3.504   3.411
  832SOL  OW    2494   1.418   3.569   3.848
  832SOL  HW1   2495   1.425   3.474   3.844
  832SOL  HW2   2496   1.422   3.597   3.756
  833SOL  OW    2497   1.389   3.823   0.179
  833SOL  HW1   2498   1.309   3.860   0.217
  833SOL  HW2   2499   1.363   3.736   0.148
  834SOL  OW    2500   1.385   3.809   0.476
  834SOL  HW1   2501   1.312   3.793   0.537
  834SOL  HW2   2502   1.358   3.886   0.426
  835SOL  OW    2503   1.421   3.872   0.751
  835SOL  HW1   2504   1.434   3.808   0.682
  835SOL  HW2   2505   1.503   3.920   0.756
  836SOL  OW    2506   1.349   3.881   1.112
  836SOL  HW1   2507   1.430   3.914   1.073
  836SOL  HW2   2508   1.295   3.960   1.124
  837SOL  OW    2509   1.387   3.858   1.382
  837SOL  HW1   2510   1.304   3.822   1.351
  837SOL  HW2   2511   1.450   3.787   1.369
  838SOL  OW    2512   1.378   3.816   1.660
  838SOL  HW1   2513   1.398   3.899   1.618
  838SOL  HW2   2514   1.371   3.837   1.753
  839SOL  OW    2515   1.363   3.873   1.972
  839SOL  HW1   2516   1.312   3.952   1.956
  839SOL  HW2   2517   1.321   3.806   1.918
  840SOL  OW    2518   1.363   3.850   2.285
  840SOL  HW1   2519   1.340   3.760   2.264
  840SOL  HW2   2520   1.280   3.898   2.278
  841SOL  OW    2521   1.358   3.851   2.605
  841SOL  HW1   2522   1.451   3.834   2.617
  841SOL  HW2   2523   1.352   3.946   2.592
  842SOL  OW    2524   1.395   3.879   2.895
  842SOL  HW1   2525   1.356   3.895   2.981
  842SOL  HW2   2526   1.468   3.940   2.890
  843SOL  OW    2527   1.418   3.878   3.257
  843SOL  HW1   2528   1.347   3.925   3.212
  843SOL  HW2   2529   1.441   3.936   3.330
  844SOL  OW    2530   1.395   3.856   3.550
  844SOL  HW1   2531   1.308   3.879   3.582
  844SOL  HW2   2532   1.453   3.868   3.625
  845SOL  OW    2533   1.400   3.807   3.883
  845SOL  HW1   2534   1.402   3.899   3.911
  845SOL  HW2   2535   1.464   3.763   3.939
  846SOL  OW    2536   1.699   0.176   0.144
  846SOL  HW1   2537   1.741   0.163   0.229
  846SOL  HW2   2538   1.772   0.195   0.085
  847SOL  OW    2539   1.653   0.155   0.462
  847SOL  HW1   2540   1.680   0.145   0.371
  847SOL  HW2   2541   1.572   0.205   0.458
  848SOL  OW    2542   1.687   0.141   0.749
  848SOL  HW1   2543   1.649   0.226   0.772
  848SOL  HW2   2544   1.782   0.157   0.747
  849SOL  OW    2545   1.695   0.144   1.115
  849SOL  HW1   2546   1.658   0.214   1.060
  849SOL  HW2   2547   1.621   0.113   1.168
  850SOL  OW    2548   1.666   0.139   1.368
  850SOL  HW1   2549   1.751   0.101   1.348
  850SOL  HW2   2550   1.657   0.211   1.306
  851SOL  OW    2551   1.696   0.154   1.704
  851SOL  HW1   2552   1.660   0.154   1.615
  851SOL  HW2   2553   1.698   0.061   1.729
  852SOL  OW    2554   1.728   0.137   2.015
  852SOL  HW1   2555   1.740   0.120   2.109
  852SOL  HW2   2556   1.749   0.053   1.973
  853SOL  OW    2557   1.654   0.135   2.305
  853SOL  HW1   2558   1.620   0.218   2.337
  853SOL  HW2   2559   1.722   0.159   2.242
  854SOL  OW    2560   1.655   0.163   2.630
  854SOL  HW1   2561   1.741   0.131   2.602
  854SOL  HW2   2562   1.661   0.258   2.622
  855SOL  OW    2563   1.712   0.155   2.931
  855SOL  HW1   2564   1.766   0.089   2.889
  855SOL  HW2   2565   1.637   0.107   2.967
  856SOL  OW    2566   1.684   0.117   3.199
  856SOL  HW1   2567   1.698   0.212   3.199
  856SOL  HW2   2568   1.688   0.093   3.106
  857SOL  OW    2569   1.705   0.193   3.500
  857SOL  HW1   2570   1.682   0.251   3.426
  857SOL  HW2   2571   1.788   0.228   3.532
  858SOL  OW    2572   1.697   0.174   3.872
  858SOL  HW1   2573   1.678   0.267   3.886
  858SOL  HW2   2574   1.611   0.131   3.877
  859SOL  OW    2575   1.696   0.471   0.170
  859SOL  HW1   2576   1.680   0.539   0.235
  859SOL  HW2   2577   1.780   0.494   0.131
  860SOL  OW    2578   1.721   0.431   0.496
  860SOL  HW1   2579   1.808   0.420   0.534
  860SOL  HW2   2580   1.726   0.386   0.411
  861SOL  OW    2581   1.654   0.488   0.735
  861SOL  HW1   2582   1.566   0.487   0.700
  861SOL  HW2   2583   1.710   0.506   0.660
  862SOL  OW    2584   1.668   0.422   1.073
  862SOL  HW1   2585   1.606   0.465   1.131
  862SOL  HW2   2586   1.723   0.369   1.130
  863SOL  OW    2587   1.679   0.435   1.381
  863SOL  HW1   2588   1.606   0.477   1.427
  863SOL  HW2   2589   1.754   0.491   1.398
  864SOL  OW    2590   1.684   0.483   1.724
  864SOL  HW1   2591   1.771   0.519   1.703
  864SOL  HW2   2592   1.629   0.510   1.650
  865SOL  OW    2593   1.705   0.431   1.984
  865SOL  HW1   2594   1.774   0.370   2.007
  865SOL  HW2   2595   1.625   0.392   2.019
  866SOL  OW    2596   1.725   0.429   2.300
  866SOL  HW1   2597   1.652   0.428   2.239
  866SOL  HW2   2598   1.685   0.432   2.387
  867SOL  OW    2599   1.728   0.498   2.608
  867SOL  HW1   2600   1.685   0.549   2.677
  867SOL  HW2   2601   1.672   0.510   2.531
  868SOL  OW    2602   1.706   0.458   2.943
  868SOL  HW1   2603   1.774   0.522   2.921
  868SOL  HW2   2604   1.625   0.496   2.910
  869SOL  OW    2605   1.655   0.433   3.240
  869SOL  HW1   2606   1.694   0.406   3.323
  869SOL  HW2   2607   1.707   0.390   3.173
  870SOL  OW    2608   1.671   0.475   3.527
  870SOL  HW1   2609   1.717   0.529   3.591
  870SOL  HW2   2610   1.738   0.453   3.462
  871SOL  OW    2611   1.723   0.487   3.846
  871SOL  HW1   2612   1.664   0.435   3.900
  871SOL  HW2   2613   1.755   0.426   3.779
  872SOL  OW    2614   1.714   0.751   0.153
  872SOL  HW1   2615   1.676   0.663   0.154
  872SOL  HW2   2616   1.768   0.755   0.233
  873SOL  OW    2617   1.668   0.798   0.487
  873SOL  HW1   2618   1.676   0.807   0.392
  873SOL  HW2   2619   1.711   0.876   0.523
  874SOL  OW    2620   1.724   0.799   0.806
  874SOL  HW1   2621   1.748   0.716   0.847
  874SOL  HW2   2622   1.663   0.775   0.737
  875SOL  OW    2623   1.671   0.804   1.083
  875SOL  HW1   2624   1.627   0.853   1.013
  875SOL  HW2   2625   1.726   0.741   1.037
  876SOL  OW    2626   1.686   0.774   1.372
  876SOL  HW1   2627   1.692   0.690   1.417
  876SOL  HW2   2628   1.677   0.839   1.442
  877SOL  OW    2629   1.675   0.749   1.659
  877SOL  HW1   2630   1.617   0.743   1.735
  877SOL  HW2   2631   1.763   0.736   1.695
  878SOL  OW    2632   1.692   0.800   2.010
  878SOL  HW1   2633   1.695   0.886   2.054
  878SOL  HW2   2634   1.783   0.769   2.011
  879SOL  OW    2635   1.694   0.764   2.305
  879SOL  HW1   2636   1.628   0.716   2.355
  879SOL  HW2   2637   1.749   0.805   2.371
  880SOL  OW    2638   1.669   0.795   2.591
  880SOL  HW1   2639   1.620   0.715   2.608
  880SOL  HW2   2640   1.606   0.853   2.549
  881SOL  OW    2641   1.710   0.790   2.929
  881SOL  HW1   2642   1.663   0.711   2.900
  881SOL  HW2   2643   1.645   0.838   2.980
  882SOL  OW    2644   1.721   0.753   3.261
  882SOL  HW1   2645   1.736   0.663   3.292
  882SOL  HW2   2646   1.778   0.761   3.185
  883SOL  OW    2647   1.711   0.793   3.552
  883SOL  HW1   2648   1.627   0.750   3.570
  883SOL  HW2   2649   1.706   0.875   3.600
  884SOL  OW    2650   1.720   0.809   3.840
  884SOL  HW1   2651   1.755   0.897   3.853
  884SOL  HW2   2652   1.797   0.754   3.825
  885SOL  OW    2653   1.717   1.096   0.150
  885SOL  HW1   2654   1.765   1.034   0.095
  885SOL  HW2   2655   1.784   1.161   0.176
  886SOL  OW    2656   1.726   1.068   0.467
  886SOL  HW1   2657   1.787   1.100   0.400
  886SOL  HW2   2658   1.686   1.148   0.502
  887SOL  OW    2659   1.661   1.055   0.796
  887SOL  HW1   2660   1.568   1.052   0.820
  887SOL  HW2   2661   1.665   1.010   0.712
  888SOL  OW    2662   1.684   1.068   1.057
  888SOL  HW1   2663   1.592   1.059   1.033
  888SOL  HW2   2664   1.683   1.105   1.145
  889SOL  OW    2665   1.692   1.101   1.416
  889SOL  HW1   2666   1.767   1.145   1.376
  889SOL  HW2   2667   1.729   1.028   1.465
  890SOL  OW    2668   1.658   1.083   1.690
  890SOL  HW1   2669   1.635   1.175   1.674
  890SOL  HW2   2670   1.754   1.082   1.689
  891SOL  OW    2671   1.701   1.073   1.992
  891SOL  HW1   2672   1.786   1.042   1.960
  891SOL  HW2   2673   1.686   1.022   2.072
  892SOL  OW    2674   1.690   1.083   2.308
  892SOL  HW1   2675   1.685   0.996   2.346
  892SOL  HW2   2676   1.781   1.109   2.320
  893SOL  OW    2677   1.690   1.102   2.635
  893SOL  HW1   2678   1.659   1.013   2.651
  893SOL  HW2   2679   1.667   1.151   2.714
  894SOL  OW    2680   1.680   1.101   2.951
  894SOL  HW1   2681   1.768   1.064   2.951
  894SOL  HW2   2682   1.631   1.045   3.012
  895SOL  OW    2683   1.665   1.084   3.214
  895SOL  HW1   2684   1.575   1.072   3.246
  895SOL  HW2   2685   1.675   1.178   3.205
  896SOL  OW    2686   1.711   1.056   3.552
  896SOL  HW1   2687   1.624   1.025   3.528
  896SOL  HW2   2688   1.760   1.057   3.470
  897SOL  OW    2689   1.673   1.078   3.882
  897SOL  HW1   2690   1.727   1.018   3.933
  897SOL  HW2   2691   1.595   1.092   3.936
  898SOL  OW    2692   1.683   1.415   0.193
  898SOL  HW1   2693   1.765   1.451   0.159
  898SOL  HW2   2694   1.614   1.466   0.151
  899SOL  OW    2695   1.722   1.358   0.487
  899SOL  HW1   2696   1.702   1.268   0.512
  899SOL  HW2   2697   1.789   1.386   0.550
  900SOL  OW    2698   1.655   1.376   0.799
  900SOL  HW1   2699   1.745   1.396   0.773
  900SOL  HW2   2700   1.601   1.408   0.727
  901SOL  OW    2701   1.707   1.387   1.068
  901SOL  HW1   2702   1.723   1.313   1.126
  901SOL  HW2   2703   1.612   1.390   1.058
  902SOL  OW    2704   1.717   1.401   1.382
  902SOL  HW1   2705   1.806   1.417   1.413
  902SOL  HW2   2706   1.725   1.325   1.326
  903SOL  OW    2707   1.724   1.363   1.666
  903SOL  HW1   2708   1.764   1.299   1.724
  903SOL  HW2   2709   1.639   1.325   1.643
  904SOL  OW    2710   1.704   1.422   1.980
  904SOL  HW1   2711   1.630   1.402   2.037
  904SOL  HW2   2712   1.668   1.416   1.891
  905SOL  OW    2713   1.672   1.356   2.337
  905SOL  HW1   2714   1.727   1.414   2.283
  905SOL  HW2   2715   1.606   1.322   2.276
  906SOL  OW    2716   1.670   1.385   2.655
  906SOL  HW1   2717   1.667   1.433   2.738
  906SOL  HW2   2718   1.623   1.303   2.672
  907SOL  OW    2719   1.653   1.389   2.924
  907SOL  HW1   2720   1.671   1.465   2.869
  907SOL  HW2   2721   1.559   1.375   2.915
  908SOL  OW    2722   1.717   1.373   3.224
  908SOL  HW1   2723   1.764   1.410   3.298
  908SOL  HW2   2724   1.785   1.339   3.166
  909SOL  OW    2725   1.666   1.404   3.561
  909SOL  HW1   2726   1.634   1.430   3.648
  909SOL  HW2   2727   1.671   1.308   3.566
  910SOL  OW    2728   1.663   1.376   3.878
  910SOL  HW1   2729   1.689   1.385   3.786
  910SOL  HW2   2730   1.570   1.356   3.875
  911SOL  OW    2731   1.653   1.676   0.158
  911SOL  HW1   2732   1.650   1.642   0.069
  911SOL  HW2   2733   1.734   1.727   0.162
  912SOL  OW    2734   1.679   1.674   0.458
  912SOL  HW1   2735   1.764   1.718   0.452
  912SOL  HW2   2736   1.616   1.745   0.472
  913SOL  OW    2737   1.667   1.695   0.786
  913SOL  HW1   2738   1.605   1.686   0.713
  913SOL  HW2   2739   1.748   1.655   0.753
  914SOL  OW    2740   1.698   1.660   1.104
  914SOL  HW1   2741   1.687   1.750   1.074
  914SOL  HW2   2742   1.675   1.605   1.029
  915SOL  OW    2743   1.666   1.713   1.373
  915SOL  HW1   2744   1.589   1.748   1.328
  915SOL  HW2   2745   1.671   1.763   1.455
  916SOL  OW    2746   1.715   1.669   1.667
  916SOL  HW1   2747   1.803   1.691   1.637
  916SOL  HW2   2748   1.683   1.749   1.709
  917SOL  OW    2749   1.692   1.655   1.978
  917SOL  HW1   2750   1.689   1.736   1.927
  917SOL  HW2   2751   1.744   1.594   1.925
  918SOL  OW    2752   1.710   1.719   2.274
  918SOL  HW1   2753   1.672   1.757   2.195
  918SOL  HW2   2754   1.668   1.634   2.283
  919SOL  OW    2755   1.723   1.716   2.645
  919SOL  HW1   2756   1.669   1.738   2.569
  919SOL  HW2   2757   1.724   1.796   2.697
  920SOL  OW    2758   1.708   1.706   2.925
  920SOL  HW1   2759   1.755   1.677   2.847
  920SOL  HW2   2760   1.628   1.746   2.891
  921SOL  OW    2761   1.705   1.726   3.199
  921SOL  HW1   2762   1.714   1.759   3.110
  921SOL  HW2   2763   1.690   1.804   3.252
  922SOL  OW    2764   1.678   1.658   3.574
  922SOL  HW1   2765   1.601   1.609   3.544
  922SOL  HW2   2766   1.654   1.750   3.559
  923SOL  OW    2767   1.688   1.706   3.873
  923SOL  HW1   2768   1.607   1.681   3.917
  923SOL  HW2   2769   1.677   1.800   3.854
  924SOL  OW    2770   1.732   1.973   0.178
  924SOL  HW1   2771   1.793   1.932   0.117
  924SOL  HW2   2772   1.785   2.035   0.227
  925SOL  OW    2773   1.723   1.964   0.482
  925SOL  HW1   2774   1.728   1.974   0.577
  925SOL  HW2   2775   1.710   2.053   0.449
  926SOL  OW    2776   1.681   2.012   0.770
  926SOL  HW1   2777   1.590   2.033   0.749
  926SOL  HW2   2778   1.685   2.018   0.866
  927SOL  OW    2779   1.673   1.971   1.046
  927SOL  HW1   2780   1.674   1.905   1.116
  927SOL  HW2   2781   1.599   2.027   1.068
  928SOL  OW    2782   1.661   2.011   1.373
  928SOL  HW1   2783   1.633   2.092   1.416
  928SOL  HW2   2784   1.649   1.943   1.439
  929SOL  OW    2785   1.670   2.015   1.707
  929SOL  HW1   2786   1.615   2.062   1.770
  929SOL  HW2   2787   1.732   1.967   1.761
  930SOL  OW    2788   1.695   2.035   1.991
  930SOL  HW1   2789   1.781   2.000   1.965
  930SOL  HW2   2790   1.686   2.115   1.940
  931SOL  OW    2791   1.719   1.966   2.327
  931SOL  HW1   2792   1.688   2.050   2.293
  931SOL  HW2   2793   1.807   1.984   2.359
  932SOL  OW    2794   1.731   2.028   2.622
  932SOL  HW1   2795   1.683   2.095   2.574
  932SOL  HW2   2796   1.796   2.077   2.673
  933SOL  OW    2797   1.702   1.988   2.937
  933SOL  HW1   2798   1.685   1.898   2.912
  933SOL  HW2   2799   1.629   2.038   2.902
  934SOL  OW    2800   1.714   2.040   3.230
  934SOL  HW1   2801   1.720   2.133   3.253
  934SOL  HW2   2802   1.646   2.005   3.288
  935SOL  OW    2803   1.657   2.008   3.508
  935SOL  HW1   2804   1.729   1.952   3.478
  935SOL  HW2   2805   1.685   2.039   3.594
  936SOL  OW    2806   1.672   1.986   3.865
  936SOL  HW1   2807   1.620   2.066   3.856
  936SOL  HW2   2808   1.692   1.980   3.958
  937SOL  OW    2809   1.667   2.281   0.117
  937SOL  HW1   2810   1.620   2.353   0.076
  937SOL  HW2   2811   1.618   2.263   0.198
  938SOL  OW    2812   1.722   2.323   0.425
  938SOL  HW1   2813   1.733   2.379   0.347
  938SOL  HW2   2814   1.693   2.383   0.494
  939SOL  OW    2815   1.655   2.312   0.752
  939SOL  HW1   2816   1.576   2.324   0.805
  939SOL  HW2   2817   1.658   2.390   0.697
  940SOL  OW    2818   1.700   2.302   1.111
  940SOL  HW1   2819   1.677   2.353   1.188
  940SOL  HW2   2820   1.617   2.285   1.067
  941SOL  OW    2821   1.675   2.322   1.349
  941SOL  HW1   2822   1.662   2.405   1.304
  941SOL  HW2   2823   1.768   2.301   1.335
  942SOL  OW    2824   1.729   2.346   1.711
  942SOL  HW1   2825   1.649   2.360   1.762
  942SOL  HW2   2826   1.719   2.258   1.675
  943SOL  OW    2827   1.690   2.285   2.025
  943SOL  HW1   2828   1.624   2.216   2.017
  943SOL  HW2   2829   1.638   2.365   2.040
  944SOL  OW    2830   1.711   2.285   2.304
  944SOL  HW1   2831   1.644   2.270   2.238
  944SOL  HW2   2832   1.793   2.261   2.261
  945SOL  OW    2833   1.689   2.334   2.630
  945SOL  HW1   2834   1.763   2.327   2.570
  945SOL  HW2   2835   1.725   2.307   2.715
  946SOL  OW    2836   1.704   2.320   2.905
  946SOL  HW1   2837   1.723   2.266   2.828
  946SOL  HW2   2838   1.773   2.298   2.967
  947SOL  OW    2839   1.682   2.271   3.254
  947SOL  HW1   2840   1.641   2.224   3.326
  947SOL  HW2   2841   1.622   2.260   3.180
  948SOL  OW    2842   1.687   2.303   3.518
  948SOL  HW1   2843   1.652   2.342   3.438
  948SOL  HW2   2844   1.662   2.364   3.587
  949SOL  OW    2845   1.669   2.315   3.825
  949SOL  HW1   2846   1.661   2.332   3.731
  949SOL  HW2   2847   1.642   2.396   3.867
  950SOL  OW    2848   1.657   2.637   0.144
  950SOL  HW1   2849   1.724   2.670   0.084
  950SOL  HW2   2850   1.581   2.692   0.129
  951SOL  OW    2851   1.683   2.610   0.487
  951SOL  HW1   2852   1.653   2.595   0.577
  951SOL  HW2   2853   1.678   2.524   0.445
  952SOL  OW    2854   1.678   2.636   0.804
  952SOL  HW1   2855   1.653   2.718   0.761
  952SOL  HW2   2856   1.601   2.580   0.797
  953SOL  OW    2857   1.705   2.610   1.097
  953SOL  HW1   2858   1.735   2.698   1.121
  953SOL  HW2   2859   1.659   2.622   1.014
  954SOL  OW    2860   1.689   2.609   1.387
  954SOL  HW1   2861   1.706   2.586   1.295
  954SOL  HW2   2862   1.636   2.536   1.420
  955SOL  OW    2863   1.678   2.584   1.685
  955SOL  HW1   2864   1.606   2.568   1.747
  955SOL  HW2   2865   1.648   2.657   1.632
  956SOL  OW    2866   1.662   2.608   2.005
  956SOL  HW1   2867   1.663   2.541   1.937
  956SOL  HW2   2868   1.748   2.651   1.997
  957SOL  OW    2869   1.727   2.578   2.317
  957SOL  HW1   2870   1.796   2.537   2.369
  957SOL  HW2   2871   1.645   2.544   2.354
  958SOL  OW    2872   1.689   2.577   2.595
  958SOL  HW1   2873   1.712   2.656   2.547
  958SOL  HW2   2874   1.750   2.511   2.564
  959SOL  OW    2875   1.662   2.593   2.905
  959SOL  HW1   2876   1.673   2.537   2.828
  959SOL  HW2   2877   1.745   2.640   2.912
  960SOL  OW    2878   1.684   2.618   3.191
  960SOL  HW1   2879   1.714   2.642   3.103
  960SOL  HW2   2880   1.621   2.685   3.214
  961SOL  OW    2881   1.665   2.583   3.542
  961SOL  HW1   2882   1.749   2.578   3.496
  961SOL  HW2   2883   1.600   2.562   3.476
  962SOL  OW    2884   1.679   2.619   3.824
  962SOL  HW1   2885   1.756   2.591   3.873
  962SOL  HW2   2886   1.629   2.672   3.886
  963SOL  OW    2887   1.654   2.958   0.123
  963SOL  HW1   2888   1.626   2.972   0.032
  963SOL  HW2   2889   1.573   2.941   0.171
  964SOL  OW    2890   1.662   2.895   0.500
  964SOL  HW1   2891   1.725   2.824   0.483
  964SOL  HW2   2892   1.577   2.856   0.484
  965SOL  OW    2893   1.702   2.932   0.808
  965SOL  HW1   2894   1.692   2.941   0.903
  965SOL  HW2   2895   1.633   2.988   0.772
  966SOL  OW    2896   1.659   2.961   1.053
  966SOL  HW1   2897   1.568   2.941   1.034
  966SOL  HW2   2898   1.659   3.054   1.075
  967SOL  OW    2899   1.702   2.917   1.375
  967SOL  HW1   2900   1.732   2.833   1.339
  967SOL  HW2   2901   1.608   2.905   1.387
  968SOL  OW    2902   1.727   2.895   1.732
  968SOL  HW1   2903   1.742   2.813   1.779
  968SOL  HW2   2904   1.635   2.890   1.706
  969SOL  OW    2905   1.683   2.935   2.037
  969SOL  HW1   2906   1.774   2.947   2.013
  969SOL  HW2   2907   1.644   2.890   1.963
  970SOL  OW    2908   1.657   2.957   2.313
  970SOL  HW1   2909   1.629   2.954   2.222
  970SOL  HW2   2910   1.671   2.865   2.337
  971SOL  OW    2911   1.709   2.895   2.618
  971SOL  HW1   2912   1.667   2.904   2.704
  971SOL  HW2   2913   1.665   2.960   2.563
  972SOL  OW    2914   1.706   2.920   2.895
  972SOL  HW1   2915   1.735   3.009   2.879
  972SOL  HW2   2916   1.623   2.930   2.942
  973SOL  OW    2917   1.672   2.951   3.194
  973SOL  HW1   2918   1.733   2.999   3.250
  973SOL  HW2   2919   1.707   2.863   3.190
  974SOL  OW    2920   1.709   2.963   3.499
  974SOL  HW1   2921   1.672   3.020   3.567
  974SOL  HW2   2922   1.683   3.004   3.417
  975SOL  OW    2923   1.665   2.937   3.811
  975SOL  HW1   2924   1.667   2.864   3.749
  975SOL  HW2   2925   1.580   2.979   3.797
  976SOL  OW    2926   1.699   3.245   0.161
  976SOL  HW1   2927   1.630   3.206   0.213
  976SOL  HW2   2928   1.695   3.201   0.076
  977SOL  OW    2929   1.682   3.247   0.469
  977SOL  HW1   2930   1.706   3.156   0.488
  977SOL  HW2   2931   1.706   3.295   0.548
  978SOL  OW    2932   1.669   3.236   0.800
  978SOL  HW1   2933   1.744   3.192   0.840
  978SOL  HW2   2934   1.617   3.165   0.762
  979SOL  OW    2935   1.706   3.229   1.063
  979SOL  HW1   2936   1.621   3.251   1.101
  979SOL  HW2   2937   1.738   3.311   1.026
  980SOL  OW    2938   1.659   3.210   1.346
  980SOL  HW1   2939   1.591   3.260   1.300
  980SOL  HW2   2940   1.633   3.119   1.335
  981SOL  OW    2941   1.731   3.209   1.717
  981SOL  HW1   2942   1.765   3.279   1.773
  981SOL  HW2   2943   1.663   3.167   1.771
  982SOL  OW    2944   1.666   3.213   1.993
  982SOL  HW1   2945   1.688   3.156   1.920
  982SOL  HW2   2946   1.588   3.173   2.033
  983SOL  OW    2947   1.678   3.255   2.344
  983SOL  HW1   2948   1.721   3.315   2.405
  983SOL  HW2   2949   1.742   3.184   2.332
  984SOL  OW    2950   1.722   3.203   2.638
  984SOL  HW1   2951   1.652   3.209   2.702
  984SOL  HW2   2952   1.789   3.148   2.679
  985SOL  OW    2953   1.664   3.264   2.925
  985SOL  HW1   2954   1.669   3.308   3.009
  985SOL  HW2   2955   1.642   3.333   2.863
  986SOL  OW    2956   1.679   3.203   3.192
  986SOL  HW1   2957   1.661   3.297   3.204
  986SOL  HW2   2958   1.601   3.159   3.226
  987SOL  OW    2959   1.672   3.264   3.562
  987SOL  HW1   2960   1.698   3.315   3.639
  987SOL  HW2   2961   1.697   3.174   3.584
  988SOL  OW    2962   1.730   3.199   3.854
  988SOL  HW1   2963   1.638   3.223   3.844
  988SOL  HW2   2964   1.770   3.224   3.770
  989SOL  OW    2965   1.673   3.542   0.139
  989SOL  HW1   2966   1.630   3.496   0.067
  989SOL  HW2   2967   1.730   3.476   0.179
  990SOL  OW    2968   1.675   3.544   0.436
  990SOL  HW1   2969   1.698   3.627   0.393
  990SOL  HW2   2970   1.637   3.571   0.520
  991SOL  OW    2971   1.690   3.551   0.739
  991SOL  HW1   2972   1.640   3.522   0.663
  991SOL  HW2   2973   1.781   3.544   0.713
  992SOL  OW    2974   1.727   3.539   1.102
  992SOL  HW1   2975   1.685   3.566   1.184
  992SOL  HW2   2976   1.673   3.579   1.034
  993SOL  OW    2977   1.705   3.555   1.402
  993SOL  HW1   2978   1.701   3.609   1.323
  993SOL  HW2   2979   1.651   3.479   1.382
  994SOL  OW    2980   1.722   3.548   1.675
  994SOL  HW1   2981   1.705   3.470   1.728
  994SOL  HW2   2982   1.816   3.544   1.657
  995SOL  OW    2983   1.660   3.547   1.965
  995SOL  HW1   2984   1.671   3.617   1.901
  995SOL  HW2   2985   1.598   3.487   1.924
  996SOL  OW    2986   1.672   3.503   2.312
  996SOL  HW1   2987   1.734   3.525   2.381
  996SOL  HW2   2988   1.696   3.415   2.285
  997SOL  OW    2989   1.665   3.547   2.639
  997SOL  HW1   2990   1.746   3.542   2.690
  997SOL  HW2   2991   1.632   3.458   2.637
  998SOL  OW    2992   1.718   3.523   2.927
  998SOL  HW1   2993   1.812   3.536   2.911
  998SOL  HW2   2994   1.712   3.496   3.019
  999SOL  OW    2995   1.697   3.536   3.243
  999SOL  HW1   2996   1.612   3.565   3.210
  999SOL  HW2   2997   1.695   3.441   3.235
 1000SOL  OW    2998   1.669   3.577   3.506
 1000SOL  HW1   2999   1.681   3.591   3.412
 1000SOL  HW2   3000   1.577   3.551   3.515
 1001SOL  OW    3001   1.719   3.546   3.826
 1001SOL  HW1   3002   1.725   3.452   3.842
 1001SOL  HW2   3003   1.751   3.586   3.907
 1002SOL  OW    3004   1.712   3.813   0.176
 1002SOL  HW1   3005   1.683   3.875   0.243
 1002SOL  HW2   3006   1.746   3.868   0.105
 1003SOL  OW    3007   1.700   3.815   0.428
 1003SOL  HW1   3008   1.791   3.789   0.437
 1003SOL  HW2   3009   1.694   3.900   0.472
 1004SOL  OW    3010   1.712   3.830   0.800
 1004SOL  HW1   3011   1.739   3.838   0.709
 1004SOL  HW2   3012   1.669   3.912   0.821
 1005SOL  OW    3013   1.713   3.862   1.059
 1005SOL  HW1   3014   1.676   3.929   1.002
 1005SOL  HW2   3015   1.807   3.866   1.042
 1006SOL  OW    3016   1.709   3.882   1.352
 1006SOL  HW1   3017   1.631   3.938   1.346
 1006SOL  HW2   3018   1.782   3.943   1.364
 1007SOL  OW    3019   1.678   3.825   1.684
 1007SOL  HW1   3020   1.763   3.866   1.703
 1007SOL  HW2   3021   1.635   3.820   1.769
 1008SOL  OW    3022   1.712   3.844   2.006
 1008SOL  HW1   3023   1.617   3.833   1.995
 1008SOL  HW2   3024   1.732   3.922   1.954
 1009SOL  OW    3025   1.677   3.817   2.289
 1009SOL  HW1   3026   1.631   3.884   2.238
 1009SOL  HW2   3027   1.733   3.773   2.225
 1010SOL  OW    3028   1.721   3.854   2.606
 1010SOL  HW1   3029   1.677   3.852   2.691
 1010SOL  HW2   3030   1.706   3.943   2.573
 1011SOL  OW    3031   1.716   3.811   2.903
 1011SOL  HW1   3032   1.623   3.825   2.923
 1011SOL  HW2   3033   1.757   3.803   2.989
 1012SOL  OW    3034   1.671   3.885   3.247
 1012SOL  HW1   3035   1.650   3.868   3.339
 1012SOL  HW2   3036   1.586   3.879   3.202
 1013SOL  OW    3037   1.702   3.807   3.513
 1013SOL  HW1   3038   1.791   3.829   3.538
 1013SOL  HW2   3039   1.651   3.817   3.594
 1014SOL  OW    3040   1.703   3.837   3.880
 1014SOL  HW1   3041   1.754   3.840   3.961
 1014SOL  HW2   3042   1.613   3.823   3.909
 1015SOL  OW    3043   2.021   0.150   0.174
 1015SOL  HW1   3044   2.036   0.240   0.202
 1015SOL  HW2   3045   2.107   0.108   0.180
 1016SOL  OW    3046   2.038   0.151   0.473
 1016SOL  HW1   3047   2.058   0.244   0.471
 1016SOL  HW2   3048   1.979   0.140   0.547
 1017SOL  OW    3049   2.033   0.134   0.800
 1017SOL  HW1   3050   2.045   0.185   0.880
 1017SOL  HW2   3051   2.123   0.112   0.773
 1018SOL  OW    3052   1.968   0.166   1.100
 1018SOL  HW1   3053   2.013   0.144   1.018
 1018SOL  HW2   3054   1.879   0.132   1.087
 1019SOL  OW    3055   2.009   0.153   1.394
 1019SOL  HW1   3056   2.086   0.210   1.385
 1019SOL  HW2   3057   1.934   0.213   1.386
 1020SOL  OW    3058   1.972   0.131   1.674
 1020SOL  HW1   3059   2.036   0.157   1.608
 1020SOL  HW2   3060   2.019   0.069   1.730
 1021SOL  OW    3061   2.008   0.149   1.980
 1021SOL  HW1   3062   1.999   0.183   1.891
 1021SOL  HW2   3063   1.935   0.088   1.990
 1022SOL  OW    3064   2.031   0.144   2.303
 1022SOL  HW1   3065   1.970   0.182   2.367
 1022SOL  HW2   3066   2.020   0.049   2.315
 1023SOL  OW    3067   1.993   0.128   2.634
 1023SOL  HW1   3068   1.932   0.120   2.708
 1023SOL  HW2   3069   2.071   0.080   2.661
 1024SOL  OW    3070   1.996   0.115   2.960
 1024SOL  HW1   3071   2.009   0.117   3.055
 1024SOL  HW2   3072   2.060   0.178   2.926
 1025SOL  OW    3073   2.025   0.172   3.260
 1025SOL  HW1   3074   2.051   0.192   3.171
 1025SOL  HW2   3075   1.946   0.120   3.251
 1026SOL  OW    3076   2.033   0.141   3.547
 1026SOL  HW1   3077   2.089   0.085   3.601
 1026SOL  HW2   3078   1.973   0.182   3.610
 1027SOL  OW    3079   2.009   0.135   3.824
 1027SOL  HW1   3080   2.027   0.050   3.784
 1027SOL  HW2   3081   1.915   0.148   3.812
 1028SOL  OW    3082   1.969   0.474   0.176
 1028SOL  HW1   3083   1.889   0.451   0.224
 1028SOL  HW2   3084   1.998   0.392   0.137
 1029SOL  OW    3085   2.021   0.447   0.438
 1029SOL  HW1   3086   2.048   0.378   0.378
 1029SOL  HW2   3087   2.067   0.427   0.519
 1030SOL  OW    3088   1.996   0.465   0.803
 1030SOL  HW1   3089   2.081   0.469   0.759
 1030SOL  HW2   3090   1.977   0.556   0.825
 1031SOL  OW    3091   2.030   0.495   1.105
 1031SOL  HW1   3092   2.004   0.535   1.188
 1031SOL  HW2   3093   2.064   0.409   1.129
 1032SOL  OW    3094   2.037   0.459   1.348
 1032SOL  HW1   3095   2.028   0.527   1.282
 1032SOL  HW2   3096   2.059   0.380   1.299
 1033SOL  OW    3097   1.967   0.453   1.673
 1033SOL  HW1   3098   1.931   0.365   1.662
 1033SOL  HW2   3099   1.950   0.496   1.589
 1034SOL  OW    3100   1.974   0.498   1.976
 1034SOL  HW1   3101   1.979   0.494   1.880
 1034SOL  HW2   3102   1.997   0.588   1.997
 1035SOL  OW    3103   2.037   0.482   2.319
 1035SOL  HW1   3104   2.003   0.413   2.375
 1035SOL  HW2   3105   2.112   0.443   2.274
 1036SOL  OW    3106   2.014   0.448   2.627
 1036SOL  HW1   3107   1.987   0.523   2.680
 1036SOL  HW2   3108   2.067   0.486   2.557
 1037SOL  OW    3109   1.975   0.497   2.907
 1037SOL  HW1   3110   2.057   0.539   2.881
 1037SOL  HW2   3111   1.950   0.444   2.832
 1038SOL  OW    3112   1.980   0.478   3.243
 1038SOL  HW1   3113   1.943   0.399   3.281
 1038SOL  HW2   3114   2.004   0.454   3.154
 1039SOL  OW    3115   1.996   0.472   3.511
 1039SOL  HW1   3116   2.092   0.473   3.511
 1039SOL  HW2   3117   1.973   0.401   3.571
 1040SOL  OW    3118   2.014   0.443   3.828
 1040SOL  HW1   3119   1.951   0.397   3.773
 1040SOL  HW2   3120   1.967   0.461   3.909
 1041SOL  OW    3121   1.973   0.756   0.140
 1041SOL  HW1   3122   2.007   0.845   0.132
 1041SOL  HW2   3123   1.985   0.734   0.233
 1042SOL  OW    3124   1.996   0.744   0.437
 1042SOL  HW1   3125   1.990   0.684   0.511
 1042SOL  HW2   3126   2.004   0.688   0.360
 1043SOL  OW    3127   2.003   0.740   0.784
 1043SOL  HW1   3128   2.089   0.745   0.828
 1043SOL  HW2   3129   1.962   0.662   0.822
 1044SOL  OW    3130   2.036   0.763   1.109
 1044SOL  HW1   3131   2.041   0.839   1.168
 1044SOL  HW2   3132   2.005   0.691   1.164
 1045SOL  OW    3133   1.968   0.733   1.402
 1045SOL  HW1   3134   2.003   0.801   1.345
 1045SOL  HW2   3135   2.016   0.743   1.484
 1046SOL  OW    3136   2.021   0.797   1.657
 1046SOL  HW1   3137   2.044   0.736   1.587
 1046SOL  HW2   3138   2.099   0.851   1.669
 1047SOL  OW    3139   2.022   0.759   1.984
 1047SOL  HW1   3140   1.944   0.710   2.009
 1047SOL  HW2   3141   2.061   0.709   1.912
 1048SOL  OW    3142   1.974   0.809   2.273
 1048SOL  HW1   3143   2.038   0.739   2.262
 1048SOL  HW2   3144   1.906   0.790   2.208
 1049SOL  OW    3145   2.026   0.780   2.634
 1049SOL  HW1   3146   1.955   0.834   2.600
 1049SOL  HW2   3147   2.078   0.758   2.557
 1050SOL  OW    3148   2.017   0.798   2.898
 1050SOL  HW1   3149   2.032   0.891   2.912
 1050SOL  HW2   3150   1.925   0.784   2.921
 1051SOL  OW    3151   1.960   0.777   3.219
 1051SOL  HW1   3152   2.040   0.796   3.169
 1051SOL  HW2   3153   1.958   0.845   3.287
 1052SOL  OW    3154   1.970   0.744   3.525
 1052SOL  HW1   3155   1.876   0.752   3.507
 1052SOL  HW2   3156   1.974   0.705   3.612
 1053SOL  OW    3157   1.966   0.734   3.879
 1053SOL  HW1   3158   2.002   0.698   3.960
 1053SOL  HW2   3159   1.876   0.701   3.878
 1054SOL  OW    3160   1.985   1.116   0.191
 1054SOL  HW1   3161   1.958   1.141   0.279
 1054SOL  HW2   3162   1.992   1.020   0.194
 1055SOL  OW    3163   1.971   1.094   0.470
 1055SOL  HW1   3164   1.908   1.034   0.510
 1055SOL  HW2   3165   2.049   1.040   0.454
 1056SOL  OW    3166   2.015   1.045   0.744
 1056SOL  HW1   3167   1.958   0.978   0.782
 1056SOL  HW2   3168   1.955   1.112   0.712
 1057SOL  OW    3169   1.966   1.085   1.116
 1057SOL  HW1   3170   1.993   1.158   1.172
 1057SOL  HW2   3171   2.015   1.010   1.149
 1058SOL  OW    3172   2.014   1.094   1.423
 1058SOL  HW1   3173   1.958   1.171   1.419
 1058SOL  HW2   3174   1.964   1.025   1.379
 1059SOL  OW    3175   2.014   1.040   1.722
 1059SOL  HW1   3176   2.053   1.068   1.639
 1059SOL  HW2   3177   1.956   1.112   1.746
 1060SOL  OW    3178   1.989   1.037   2.001
 1060SOL  HW1   3179   1.935   1.114   1.982
 1060SOL  HW2   3180   1.982   0.983   1.922
 1061SOL  OW    3181   2.035   1.058   2.307
 1061SOL  HW1   3182   1.976   1.132   2.314
 1061SOL  HW2   3183   1.989   0.986   2.352
 1062SOL  OW    3184   1.974   1.042   2.582
 1062SOL  HW1   3185   1.908   0.973   2.568
 1062SOL  HW2   3186   1.968   1.097   2.504
 1063SOL  OW    3187   2.018   1.106   2.895
 1063SOL  HW1   3188   1.934   1.126   2.853
 1063SOL  HW2   3189   2.012   1.146   2.981
 1064SOL  OW    3190   1.983   1.053   3.193
 1064SOL  HW1   3191   2.021   0.991   3.131
 1064SOL  HW2   3192   2.051   1.065   3.259
 1065SOL  OW    3193   2.004   1.093   3.550
 1065SOL  HW1   3194   2.056   1.035   3.494
 1065SOL  HW2   3195   2.068   1.132   3.610
 1066SOL  OW    3196   1.991   1.081   3.814
 1066SOL  HW1   3197   2.068   1.080   3.871
 1066SOL  HW2   3198   2.025   1.057   3.727
 1067SOL  OW    3199   1.972   1.419   0.175
 1067SOL  HW1   3200   1.973   1.324   0.188
 1067SOL  HW2   3201   1.915   1.432   0.100
 1068SOL  OW    3202   2.034   1.418   0.473
 1068SOL  HW1   3203   2.080   1.337   0.449
 1068SOL  HW2   3204   1.999   1.451   0.391
 1069SOL  OW    3205   2.034   1.378   0.730
 1069SOL  HW1   3206   1.993   1.456   0.692
 1069SOL  HW2   3207   2.056   1.324   0.654
 1070SOL  OW    3208   1.965   1.353   1.045
 1070SOL  HW1   3209   2.055   1.321   1.056
 1070SOL  HW2   3210   1.917   1.278   1.011
 1071SOL  OW    3211   1.988   1.401   1.408
 1071SOL  HW1   3212   1.943   1.471   1.360
 1071SOL  HW2   3213   1.965   1.415   1.500
 1072SOL  OW    3214   2.007   1.356   1.712
 1072SOL  HW1   3215   2.093   1.314   1.708
 1072SOL  HW2   3216   2.000   1.386   1.803
 1073SOL  OW    3217   1.988   1.346   1.982
 1073SOL  HW1   3218   2.013   1.302   1.901
 1073SOL  HW2   3219   2.004   1.280   2.050
 1074SOL  OW    3220   1.986   1.367   2.333
 1074SOL  HW1   3221   2.047   1.335   2.265
 1074SOL  HW2   3222   2.032   1.441   2.372
 1075SOL  OW    3223   2.021   1.400   2.587
 1075SOL  HW1   3224   2.039   1.451   2.665
 1075SOL  HW2   3225   2.017   1.310   2.617
 1076SOL  OW    3226   2.025   1.399   2.899
 1076SOL  HW1   3227   1.973   1.337   2.847
 1076SOL  HW2   3228   2.079   1.444   2.834
 1077SOL  OW    3229   2.012   1.383   3.226
 1077SOL  HW1   3230   2.013   1.288   3.233
 1077SOL  HW2   3231   1.951   1.411   3.294
 1078SOL  OW    3232   1.969   1.386   3.506
 1078SOL  HW1   3233   2.011   1.460   3.550
 1078SOL  HW2   3234   1.902   1.426   3.451
 1079SOL  OW    3235   1.973   1.355   3.882
 1079SOL  HW1   3236   1.910   1.303   3.932
 1079SOL  HW2   3237   2.056   1.343   3.929
 1080SOL  OW    3238   1.983   1.681   0.140
 1080SOL  HW1   3239   1.980   1.745   0.069
 1080SOL  HW2   3240   2.018   1.729   0.214
 1081SOL  OW    3241   2.032   1.697   0.495
 1081SOL  HW1   3242   2.112   1.666   0.453
 1081SOL  HW2   3243   2.057   1.712   0.586
 1082SOL  OW    3244   1.984   1.661   0.774
 1082SOL  HW1   3245   1.944   1.587   0.728
 1082SOL  HW2   3246   2.007   1.723   0.704
 1083SOL  OW    3247   1.988   1.716   1.107
 1083SOL  HW1   3248   1.925   1.782   1.137
 1083SOL  HW2   3249   2.066   1.733   1.160
 1084SOL  OW    3250   1.998   1.730   1.389
 1084SOL  HW1   3251   1.923   1.786   1.412
 1084SOL  HW2   3252   2.018   1.754   1.298
 1085SOL  OW    3253   1.982   1.691   1.655
 1085SOL  HW1   3254   2.002   1.768   1.601
 1085SOL  HW2   3255   1.888   1.676   1.642
 1086SOL  OW    3256   2.024   1.660   1.985
 1086SOL  HW1   3257   1.937   1.673   2.023
 1086SOL  HW2   3258   2.013   1.590   1.921
 1087SOL  OW    3259   2.005   1.656   2.274
 1087SOL  HW1   3260   1.985   1.635   2.183
 1087SOL  HW2   3261   2.048   1.577   2.308
 1088SOL  OW    3262   2.016   1.658   2.614
 1088SOL  HW1   3263   2.035   1.752   2.608
 1088SOL  HW2   3264   2.062   1.619   2.539
 1089SOL  OW    3265   1.987   1.671   2.898
 1089SOL  HW1   3266   1.980   1.579   2.870
 1089SOL  HW2   3267   2.057   1.670   2.963
 1090SOL  OW    3268   2.021   1.728   3.202
 1090SOL  HW1   3269   1.971   1.782   3.264
 1090SOL  HW2   3270   2.057   1.792   3.140
 1091SOL  OW    3271   2.037   1.700   3.550
 1091SOL  HW1   3272   1.969   1.698   3.482
 1091SOL  HW2   3273   2.104   1.758   3.514
 1092SOL  OW    3274   2.017   1.709   3.872
 1092SOL  HW1   3275   2.108   1.681   3.863
 1092SOL  HW2   3276   1.967   1.628   3.863
 1093SOL  OW    3277   1.999   2.003   0.140
 1093SOL  HW1   3278   1.994   1.932   0.075
 1093SOL  HW2   3279   1.919   2.053   0.126
 1094SOL  OW    3280   1.968   2.013   0.424
 1094SOL  HW1   3281   1.951   1.920   0.413
 1094SOL  HW2   3282   2.010   2.020   0.510
 1095SOL  OW    3283   1.982   1.968   0.744
 1095SOL  HW1   3284   2.064   1.920   0.757
 1095SOL  HW2   3285   1.994   2.015   0.662
 1096SOL  OW    3286   2.011   2.010   1.071
 1096SOL  HW1   3287   2.035   1.984   1.160
 1096SOL  HW2   3288   1.916   1.998   1.066
 1097SOL  OW    3289   1.967   1.995   1.373
 1097SOL  HW1   3290   1.996   2.085   1.387
 1097SOL  HW2   3291   2.018   1.965   1.297
 1098SOL  OW    3292   2.018   2.006   1.692
 1098SOL  HW1   3293   1.948   2.045   1.745
 1098SOL  HW2   3294   1.999   2.035   1.602
 1099SOL  OW    3295   1.999   2.037   2.021
 1099SOL  HW1   3296   1.941   1.970   1.985
 1099SOL  HW2   3297   1.981   2.037   2.115
 1100SOL  OW    3298   2.000   1.998   2.270
 1100SOL  HW1   3299   1.949   1.923   2.299
 1100SOL  HW2   3300   2.066   2.011   2.338
 1101SOL  OW    3301   2.035   1.986   2.596
 1101SOL  HW1   3302   1.976   1.952   2.529
 1101SOL  HW2   3303   2.095   2.043   2.548
 1102SOL  OW    3304   2.040   2.017   2.887
 1102SOL  HW1   3305   2.057   2.111   2.877
 1102SOL  HW2   3306   1.998   2.010   2.973
 1103SOL  OW    3307   1.965   1.962   3.239
 1103SOL  HW1   3308   1.919   1.879   3.228
 1103SOL  HW2   3309   1.907   2.014   3.295
 1104SOL  OW    3310   1.966   2.035   3.573
 1104SOL  HW1   3311   1.966   2.017   3.479
 1104SOL  HW2   3312   2.058   2.038   3.598
 1105SOL  OW    3313   2.004   2.009   3.830
 1105SOL  HW1   3314   2.023   2.081   3.769
 1105SOL  HW2   3315   1.984   2.052   3.913
 1106SOL  OW    3316   1.965   2.327   0.122
 1106SOL  HW1   3317   1.993   2.344   0.212
 1106SOL  HW2   3318   1.909   2.401   0.099
 1107SOL  OW    3319   1.967   2.293   0.423
 1107SOL  HW1   3320   1.941   2.337   0.342
 1107SOL  HW2   3321   1.936   2.203   0.412
 1108SOL  OW    3322   1.995   2.324   0.793
 1108SOL  HW1   3323   1.914   2.282   0.823
 1108SOL  HW2   3324   2.011   2.288   0.706
 1109SOL  OW    3325   2.008   2.335   1.069
 1109SOL  HW1   3326   2.080   2.293   1.116
 1109SOL  HW2   3327   2.046   2.418   1.038
 1110SOL  OW    3328   2.028   2.308   1.362
 1110SOL  HW1   3329   2.032   2.337   1.454
 1110SOL  HW2   3330   2.070   2.222   1.363
 1111SOL  OW    3331   2.036   2.290   1.654
 1111SOL  HW1   3332   1.953   2.327   1.684
 1111SOL  HW2   3333   2.094   2.365   1.647
 1112SOL  OW    3334   1.979   2.297   1.988
 1112SOL  HW1   3335   1.993   2.208   2.022
 1112SOL  HW2   3336   1.988   2.354   2.065
 1113SOL  OW    3337   2.002   2.338   2.291
 1113SOL  HW1   3338   1.938   2.274   2.322
 1113SOL  HW2   3339   2.085   2.310   2.329
 1114SOL  OW    3340   2.002   2.295   2.641
 1114SOL  HW1   3341   1.959   2.212   2.663
 1114SOL  HW2   3342   2.094   2.281   2.662
 1115SOL  OW    3343   1.973   2.276   2.923
 1115SOL  HW1   3344   1.951   2.262   3.016
 1115SOL  HW2   3345   2.068   2.268   2.920
 1116SOL  OW    3346   2.014   2.331   3.238
 1116SOL  HW1   3347   2.030   2.343   3.144
 1116SOL  HW2   3348   2.100   2.342   3.278
 1117SOL  OW    3349   2.022   2.299   3.501
 1117SOL  HW1   3350   2.044   2.283   3.593
 1117SOL  HW2   3351   1.933   2.334   3.504
 1118SOL  OW    3352   1.969   2.271   3.832
 1118SOL  HW1   3353   1.917   2.287   3.911
 1118SOL  HW2   3354   1.909   2.229   3.771
 1119SOL  OW    3355   2.000   2.604   0.159
 1119SOL  HW1   3356   2.003   2.608   0.254
 1119SOL  HW2   3357   2.016   2.512   0.138
 1120SOL  OW    3358   1.998   2.630   0.475
 1120SOL  HW1   3359   1.904   2.613   0.483
 1120SOL  HW2   3360   2.007   2.725   0.479
 1121SOL  OW    3361   1.985   2.603   0.776
 1121SOL  HW1   3362   1.909   2.564   0.818
 1121SOL  HW2   3363   2.059   2.551   0.808
 1122SOL  OW    3364   2.008   2.601   1.063
 1122SOL  HW1   3365   1.959   2.626   0.985
 1122SOL  HW2   3366   1.950   2.625   1.136
 1123SOL  OW    3367   2.016   2.627   1.355
 1123SOL  HW1   3368   2.039   2.555   1.414
 1123SOL  HW2   3369   2.080   2.622   1.284
 1124SOL  OW    3370   1.995   2.647   1.655
 1124SOL  HW1   3371   1.966   2.721   1.708
 1124SOL  HW2   3372   2.054   2.686   1.590
 1125SOL  OW    3373   2.028   2.588   2.001
 1125SOL  HW1   3374   2.100   2.558   1.945
 1125SOL  HW2   3375   1.952   2.590   1.943
 1126SOL  OW    3376   1.994   2.576   2.341
 1126SOL  HW1   3377   2.000   2.628   2.421
 1126SOL  HW2   3378   2.069   2.604   2.289
 1127SOL  OW    3379   1.996   2.652   2.598
 1127SOL  HW1   3380   1.928   2.672   2.662
 1127SOL  HW2   3381   2.043   2.734   2.587
 1128SOL  OW    3382   2.029   2.649   2.928
 1128SOL  HW1   3383   1.979   2.618   2.853
 1128SOL  HW2   3384   2.069   2.570   2.964
 1129SOL  OW    3385   1.976   2.630   3.235
 1129SOL  HW1   3386   2.059   2.595   3.201
 1129SOL  HW2   3387   1.962   2.584   3.317
 1130SOL  OW    3388   2.036   2.611   3.520
 1130SOL  HW1   3389   2.082   2.527   3.525
 1130SOL  HW2   3390   2.037   2.633   3.427
 1131SOL  OW    3391   1.971   2.631   3.884
 1131SOL  HW1   3392   1.914   2.570   3.931
 1131SOL  HW2   3393   2.030   2.665   3.951
 1132SOL  OW    3394   1.962   2.942   0.188
 1132SOL  HW1   3395   1.881   2.984   0.216
 1132SOL  HW2   3396   2.015   2.937   0.268
 1133SOL  OW    3397   1.966   2.892   0.477
 1133SOL  HW1   3398   1.881   2.897   0.520
 1133SOL  HW2   3399   1.949   2.843   0.396
 1134SOL  OW    3400   2.012   2.889   0.796
 1134SOL  HW1   3401   2.095   2.858   0.831
 1134SOL  HW2   3402   2.036   2.949   0.725
 1135SOL  OW    3403   2.002   2.956   1.107
 1135SOL  HW1   3404   2.005   2.860   1.114
 1135SOL  HW2   3405   2.085   2.980   1.066
 1136SOL  OW    3406   2.025   2.924   1.365
 1136SOL  HW1   3407   2.119   2.904   1.366
 1136SOL  HW2   3408   2.013   2.976   1.285
 1137SOL  OW    3409   2.000   2.891   1.705
 1137SOL  HW1   3410   2.029   2.973   1.665
 1137SOL  HW2   3411   1.985   2.913   1.797
 1138SOL  OW    3412   1.971   2.924   1.964
 1138SOL  HW1   3413   2.048   2.874   1.937
 1138SOL  HW2   3414   1.936   2.961   1.883
 1139SOL  OW    3415   1.984   2.902   2.317
 1139SOL  HW1   3416   2.071   2.934   2.296
 1139SOL  HW2   3417   1.992   2.806   2.315
 1140SOL  OW    3418   2.023   2.888   2.643
 1140SOL  HW1   3419   2.043   2.865   2.552
 1140SOL  HW2   3420   2.102   2.864   2.692
 1141SOL  OW    3421   2.029   2.910   2.936
 1141SOL  HW1   3422   1.984   2.991   2.909
 1141SOL  HW2   3423   2.071   2.878   2.856
 1142SOL  OW    3424   1.992   2.895   3.233
 1142SOL  HW1   3425   1.950   2.924   3.152
 1142SOL  HW2   3426   2.006   2.801   3.221
 1143SOL  OW    3427   1.967   2.953   3.572
 1143SOL  HW1   3428   1.948   2.960   3.479
 1143SOL  HW2   3429   1.886   2.919   3.611
 1144SOL  OW    3430   2.026   2.928   3.851
 1144SOL  HW1   3431   2.085   2.863   3.889
 1144SOL  HW2   3432   2.059   2.942   3.762
 1145SOL  OW    3433   2.039   3.211   0.120
 1145SOL  HW1   3434   2.089   3.130   0.132
 1145SOL  HW2   3435   1.986   3.195   0.041
 1146SOL  OW    3436   2.005   3.217   0.447
 1146SOL  HW1   3437   2.050   3.185   0.369
 1146SOL  HW2   3438   1.921   3.172   0.446
 1147SOL  OW    3439   1.961   3.238   0.750
 1147SOL  HW1   3440   1.904   3.279   0.685
 1147SOL  HW2   3441   1.923   3.266   0.834
 1148SOL  OW    3442   1.975   3.194   1.066
 1148SOL  HW1   3443   1.928   3.125   1.020
 1148SOL  HW2   3444   1.950   3.274   1.021
 1149SOL  OW    3445   2.030   3.218   1.399
 1149SOL  HW1   3446   1.952   3.165   1.413
 1149SOL  HW2   3447   2.083   3.204   1.477
 1150SOL  OW    3448   2.021   3.217   1.718
 1150SOL  HW1   3449   1.938   3.264   1.729
 1150SOL  HW2   3450   2.087   3.286   1.715
 1151SOL  OW    3451   2.015   3.236   1.960
 1151SOL  HW1   3452   2.057   3.308   1.913
 1151SOL  HW2   3453   1.974   3.277   2.036
 1152SOL  OW    3454   1.963   3.270   2.330
 1152SOL  HW1   3455   2.035   3.254   2.270
 1152SOL  HW2   3456   1.992   3.344   2.384
 1153SOL  OW    3457   2.035   3.263   2.577
 1153SOL  HW1   3458   2.093   3.335   2.603
 1153SOL  HW2   3459   1.997   3.232   2.659
 1154SOL  OW    3460   2.023   3.227   2.946
 1154SOL  HW1   3461   1.995   3.276   2.869
 1154SOL  HW2   3462   2.052   3.142   2.912
 1155SOL  OW    3463   1.961   3.214   3.251
 1155SOL  HW1   3464   1.929   3.230   3.340
 1155SOL  HW2   3465   2.037   3.271   3.241
 1156SOL  OW    3466   2.023   3.240   3.523
 1156SOL  HW1   3467   2.020   3.200   3.436
 1156SOL  HW2   3468   2.036   3.167   3.583
 1157SOL  OW    3469   1.985   3.268   3.841
 1157SOL  HW1   3470   1.905   3.250   3.891
 1157SOL  HW2   3471   2.051   3.212   3.881
 1158SOL  OW    3472   1.996   3.543   0.147
 1158SOL  HW1   3473   1.968   3.605   0.079
 1158SOL  HW2   3474   1.968   3.457   0.113
 1159SOL  OW    3475   2.004   3.533   0.488
 1159SOL  HW1   3476   2.045   3.452   0.457
 1159SOL  HW2   3477   1.911   3.512   0.494
 1160SOL  OW    3478   2.033   3.573   0.774
 1160SOL  HW1   3479   2.045   3.495   0.721
 1160SOL  HW2   3480   2.091   3.638   0.735
 1161SOL  OW    3481   1.995   3.555   1.104
 1161SOL  HW1   3482   2.000   3.519   1.015
 1161SOL  HW2   3483   1.931   3.500   1.149
 1162SOL  OW    3484   2.005   3.554   1.405
 1162SOL  HW1   3485   2.027   3.461   1.410
 1162SOL  HW2   3486   2.073   3.598   1.456
 1163SOL  OW    3487   2.014   3.558   1.669
 1163SOL  HW1   3488   2.082   3.504   1.628
 1163SOL  HW2   3489   2.040   3.564   1.761
 1164SOL  OW    3490   2.000   3.546   1.960
 1164SOL  HW1   3491   1.941   3.620   1.975
 1164SOL  HW2   3492   2.049   3.569   1.881
 1165SOL  OW    3493   2.028   3.547   2.278
 1165SOL  HW1   3494   2.034   3.465   2.229
 1165SOL  HW2   3495   1.993   3.522   2.363
 1166SOL  OW    3496   2.025   3.556   2.636
 1166SOL  HW1   3497   2.011   3.519   2.723
 1166SOL  HW2   3498   1.956   3.622   2.626
 1167SOL  OW    3499   1.991   3.567   2.916
 1167SOL  HW1   3500   1.932   3.608   2.979
 1167SOL  HW2   3501   2.053   3.636   2.893
 1168SOL  OW    3502   2.006   3.499   3.242
 1168SOL  HW1   3503   2.094   3.498   3.204
 1168SOL  HW2   3504   2.009   3.433   3.312
 1169SOL  OW    3505   2.017   3.544   3.538
 1169SOL  HW1   3506   1.970   3.486   3.479
 1169SOL  HW2   3507   2.028   3.625   3.489
 1170SOL  OW    3508   2.025   3.553   3.828
 1170SOL  HW1   3509   2.106   3.583   3.787
 1170SOL  HW2   3510   2.020   3.460   3.807
 1171SOL  OW    3511   2.037   3.863   0.193
 1171SOL  HW1   3512   1.950   3.825   0.209
 1171SOL  HW2   3513   2.066   3.893   0.279
 1172SOL  OW    3514   2.038   3.880   0.482
 1172SOL  HW1   3515   1.991   3.956   0.517
 1172SOL  HW2   3516   1.998   3.865   0.396
 1173SOL  OW    3517   2.009   3.820   0.773
 1173SOL  HW1   3518   1.964   3.837   0.855
 1173SOL  HW2   3519   2.027   3.726   0.774
 1174SOL  OW    3520   2.021   3.848   1.106
 1174SOL  HW1   3521   2.103   3.879   1.144
 1174SOL  HW2   3522   2.016   3.891   1.021
 1175SOL  OW    3523   1.969   3.837   1.385
 1175SOL  HW1   3524   1.893   3.864   1.334
 1175SOL  HW2   3525   2.026   3.794   1.322
 1176SOL  OW    3526   1.995   3.815   1.665
 1176SOL  HW1   3527   1.907   3.787   1.693
 1176SOL  HW2   3528   2.041   3.733   1.646
 1177SOL  OW    3529   2.027   3.845   1.964
 1177SOL  HW1   3530   2.110   3.892   1.953
 1177SOL  HW2   3531   2.001   3.821   1.875
 1178SOL  OW    3532   1.961   3.844   2.281
 1178SOL  HW1   3533   2.041   3.791   2.280
 1178SOL  HW2   3534   1.923   3.831   2.194
 1179SOL  OW    3535   2.016   3.870   2.594
 1179SOL  HW1   3536   1.983   3.935   2.531
 1179SOL  HW2   3537   2.073   3.813   2.541
 1180SOL  OW    3538   2.007   3.819   2.907
 1180SOL  HW1   3539   2.078   3.825   2.843
 1180SOL  HW2   3540   2.017   3.731   2.944
 1181SOL  OW    3541   2.031   3.850   3.262
 1181SOL  HW1   3542   2.099   3.832   3.197
 1181SOL  HW2   3543   2.035   3.776   3.322
 1182SOL  OW    3544   1.978   3.833   3.536
 1182SOL  HW1   3545   1.983   3.839   3.441
 1182SOL  HW2   3546   1.940   3.916   3.564
 1183SOL  OW    3547   1.998   3.886   3.815
 1183SOL  HW1   3548   1.911   3.846   3.820
 1183SOL  HW2   3549   1.983   3.973   3.778
 1184SOL  OW    3550   2.336   0.183   0.158
 1184SOL  HW1   3551   2.303   0.181   0.248
 1184SOL  HW2   3552   2.373   0.096   0.144
 1185SOL  OW    3553   2.295   0.155   0.445
 1185SOL  HW1   3554   2.384   0.167   0.411
 1185SOL  HW2   3555   2.296   0.068   0.483
 1186SOL  OW    3556   2.332   0.154   0.803
 1186SOL  HW1   3557   2.269   0.090   0.769
 1186SOL  HW2   3558   2.397   0.164   0.734
 1187SOL  OW    3559   2.318   0.155   1.094
 1187SOL  HW1   3560   2.240   0.126   1.046
 1187SOL  HW2   3561   2.290   0.236   1.136
 1188SOL  OW    3562   2.308   0.186   1.359
 1188SOL  HW1   3563   2.285   0.102   1.398
 1188SOL  HW2   3564   2.361   0.164   1.283
 1189SOL  OW    3565   2.346   0.179   1.721
 1189SOL  HW1   3566   2.383   0.225   1.646
 1189SOL  HW2   3567   2.407   0.195   1.793
 1190SOL  OW    3568   2.306   0.181   1.985
 1190SOL  HW1   3569   2.307   0.232   2.066
 1190SOL  HW2   3570   2.399   0.172   1.961
 1191SOL  OW    3571   2.329   0.125   2.292
 1191SOL  HW1   3572   2.377   0.201   2.260
 1191SOL  HW2   3573   2.238   0.155   2.295
 1192SOL  OW    3574   2.303   0.140   2.606
 1192SOL  HW1   3575   2.392   0.130   2.642
 1192SOL  HW2   3576   2.246   0.111   2.677
 1193SOL  OW    3577   2.333   0.134   2.943
 1193SOL  HW1   3578   2.364   0.099   3.026
 1193SOL  HW2   3579   2.238   0.136   2.951
 1194SOL  OW    3580   2.274   0.175   3.254
 1194SOL  HW1   3581   2.215   0.210   3.187
 1194SOL  HW2   3582   2.329   0.249   3.279
 1195SOL  OW    3583   2.300   0.172   3.572
 1195SOL  HW1   3584   2.298   0.141   3.481
 1195SOL  HW2   3585   2.392   0.166   3.597
 1196SOL  OW    3586   2.332   0.145   3.845
 1196SOL  HW1   3587   2.333   0.126   3.939
 1196SOL  HW2   3588   2.385   0.076   3.806
 1197SOL  OW    3589   2.330   0.445   0.178
 1197SOL  HW1   3590   2.298   0.534   0.190
 1197SOL  HW2   3591   2.296   0.397   0.254
 1198SOL  OW    3592   2.294   0.486   0.428
 1198SOL  HW1   3593   2.354   0.546   0.385
 1198SOL  HW2   3594   2.283   0.414   0.367
 1199SOL  OW    3595   2.271   0.501   0.799
 1199SOL  HW1   3596   2.259   0.437   0.869
 1199SOL  HW2   3597   2.344   0.467   0.747
 1200SOL  OW    3598   2.338   0.498   1.072
 1200SOL  HW1   3599   2.376   0.568   1.019
 1200SOL  HW2   3600   2.397   0.423   1.059
 1201SOL  OW    3601   2.291   0.432   1.385
 1201SOL  HW1   3602   2.276   0.338   1.374
 1201SOL  HW2   3603   2.378   0.447   1.349
 1202SOL  OW    3604   2.285   0.496   1.653
 1202SOL  HW1   3605   2.347   0.502   1.726
 1202SOL  HW2   3606   2.224   0.427   1.678
 1203SOL  OW    3607   2.279   0.441   1.976
 1203SOL  HW1   3608   2.200   0.447   1.923
 1203SOL  HW2   3609   2.255   0.482   2.059
 1204SOL  OW    3610   2.286   0.474   2.294
 1204SOL  HW1   3611   2.300   0.546   2.356
 1204SOL  HW2   3612   2.191   0.460   2.295
 1205SOL  OW    3613   2.317   0.493   2.624
 1205SOL  HW1   3614   2.390   0.554   2.618
 1205SOL  HW2   3615   2.251   0.538   2.676
 1206SOL  OW    3616   2.323   0.451   2.896
 1206SOL  HW1   3617   2.320   0.543   2.922
 1206SOL  HW2   3618   2.319   0.453   2.800
 1207SOL  OW    3619   2.293   0.499   3.241
 1207SOL  HW1   3620   2.372   0.478   3.190
 1207SOL  HW2   3621   2.232   0.534   3.176
 1208SOL  OW    3622   2.290   0.458   3.565
 1208SOL  HW1   3623   2.270   0.390   3.501
 1208SOL  HW2   3624   2.312   0.409   3.645
 1209SOL  OW    3625   2.321   0.466   3.877
 1209SOL  HW1   3626   2.231   0.488   3.900
 1209SOL  HW2   3627   2.371   0.545   3.900
 1210SOL  OW    3628   2.321   0.781   0.129
 1210SOL  HW1   3629   2.374   0.713   0.087
 1210SOL  HW2   3630   2.308   0.748   0.218
 1211SOL  OW    3631   2.276   0.806   0.469
 1211SOL  HW1   3632   2.203   0.842   0.420
 1211SOL  HW2   3633   2.241   0.793   0.558
 1212SOL  OW    3634   2.301   0.776   0.734
 1212SOL  HW1   3635   2.215   0.788   0.693
 1212SOL  HW2   3636   2.282   0.772   0.828
 1213SOL  OW    3637   2.333   0.747   1.101
 1213SOL  HW1   3638   2.325   0.654   1.078
 1213SOL  HW2   3639   2.367   0.788   1.022
 1214SOL  OW    3640   2.310   0.751   1.347
 1214SOL  HW1   3641   2.346   0.773   1.433
 1214SOL  HW2   3642   2.258   0.828   1.322
 1215SOL  OW    3643   2.333   0.743   1.656
 1215SOL  HW1   3644   2.339   0.745   1.752
 1215SOL  HW2   3645   2.423   0.757   1.627
 1216SOL  OW    3646   2.328   0.757   1.991
 1216SOL  HW1   3647   2.233   0.765   1.998
 1216SOL  HW2   3648   2.343   0.711   1.909
 1217SOL  OW    3649   2.287   0.798   2.291
 1217SOL  HW1   3650   2.258   0.886   2.269
 1217SOL  HW2   3651   2.380   0.797   2.267
 1218SOL  OW    3652   2.285   0.754   2.592
 1218SOL  HW1   3653   2.360   0.718   2.639
 1218SOL  HW2   3654   2.320   0.780   2.507
 1219SOL  OW    3655   2.293   0.736   2.896
 1219SOL  HW1   3656   2.213   0.777   2.863
 1219SOL  HW2   3657   2.325   0.684   2.822
 1220SOL  OW    3658   2.301   0.800   3.195
 1220SOL  HW1   3659   2.341   0.714   3.209
 1220SOL  HW2   3660   2.275   0.828   3.283
 1221SOL  OW    3661   2.285   0.802   3.570
 1221SOL  HW1   3662   2.257   0.829   3.657
 1221SOL  HW2   3663   2.305   0.709   3.578
 1222SOL  OW    3664   2.322   0.748   3.840
 1222SOL  HW1   3665   2.269   0.707   3.772
 1222SOL  HW2   3666   2.275   0.829   3.862
 1223SOL  OW    3667   2.285   1.047   0.144
 1223SOL  HW1   3668   2.255   1.122   0.092
 1223SOL  HW2   3669   2.375   1.069   0.167
 1224SOL  OW    3670   2.314   1.066   0.470
 1224SOL  HW1   3671   2.356   1.010   0.536
 1224SOL  HW2   3672   2.235   1.099   0.514
 1225SOL  OW    3673   2.291   1.065   0.792
 1225SOL  HW1   3674   2.356   0.995   0.801
 1225SOL  HW2   3675   2.334   1.130   0.737
 1226SOL  OW    3676   2.338   1.063   1.083
 1226SOL  HW1   3677   2.323   1.088   0.992
 1226SOL  HW2   3678   2.371   1.142   1.125
 1227SOL  OW    3679   2.290   1.041   1.404
 1227SOL  HW1   3680   2.374   1.073   1.371
 1227SOL  HW2   3681   2.312   0.992   1.483
 1228SOL  OW    3682   2.281   1.071   1.691
 1228SOL  HW1   3683   2.212   1.114   1.741
 1228SOL  HW2   3684   2.283   1.117   1.607
 1229SOL  OW    3685   2.282   1.044   1.988
 1229SOL  HW1   3686   2.266   0.960   2.029
 1229SOL  HW2   3687   2.375   1.061   2.004
 1230SOL  OW    3688   2.344   1.086   2.298
 1230SOL  HW1   3689   2.332   1.000   2.338
 1230SOL  HW2   3690   2.364   1.144   2.372
 1231SOL  OW    3691   2.271   1.085   2.583
 1231SOL  HW1   3692   2.265   0.994   2.555
 1231SOL  HW2   3693   2.180   1.111   2.596
 1232SOL  OW    3694   2.311   1.097   2.917
 1232SOL  HW1   3695   2.344   1.148   2.843
 1232SOL  HW2   3696   2.365   1.018   2.917
 1233SOL  OW    3697   2.292   1.041   3.193
 1233SOL  HW1   3698   2.296   0.962   3.246
 1233SOL  HW2   3699   2.213   1.029   3.139
 1234SOL  OW    3700   2.302   1.108   3.518
 1234SOL  HW1   3701   2.365   1.176   3.494
 1234SOL  HW2   3702   2.334   1.074   3.601
 1235SOL  OW    3703   2.314   1.092   3.811
 1235SOL  HW1   3704   2.312   1.044   3.728
 1235SOL  HW2   3705   2.361   1.172   3.791
 1236SOL  OW    3706   2.280   1.371   0.167
 1236SOL  HW1   3707   2.232   1.440   0.121
 1236SOL  HW2   3708   2.212   1.310   0.196
 1237SOL  OW    3709   2.303   1.403   0.491
 1237SOL  HW1   3710   2.233   1.376   0.432
 1237SOL  HW2   3711   2.365   1.331   0.490
 1238SOL  OW    3712   2.328   1.424   0.790
 1238SOL  HW1   3713   2.248   1.440   0.740
 1238SOL  HW2   3714   2.334   1.498   0.851
 1239SOL  OW    3715   2.336   1.411   1.095
 1239SOL  HW1   3716   2.258   1.424   1.149
 1239SOL  HW2   3717   2.342   1.491   1.043
 1240SOL  OW    3718   2.332   1.419   1.383
 1240SOL  HW1   3719   2.263   1.362   1.348
 1240SOL  HW2   3720   2.324   1.500   1.331
 1241SOL  OW    3721   2.319   1.386   1.720
 1241SOL  HW1   3722   2.247   1.449   1.728
 1241SOL  HW2   3723   2.398   1.438   1.729
 1242SOL  OW    3724   2.302   1.410   2.024
 1242SOL  HW1   3725   2.314   1.452   2.109
 1242SOL  HW2   3726   2.209   1.388   2.020
 1243SOL  OW    3727   2.345   1.365   2.324
 1243SOL  HW1   3728   2.411   1.351   2.392
 1243SOL  HW2   3729   2.276   1.415   2.368
 1244SOL  OW    3730   2.328   1.420   2.648
 1244SOL  HW1   3731   2.281   1.389   2.726
 1244SOL  HW2   3732   2.266   1.409   2.576
 1245SOL  OW    3733   2.314   1.391   2.896
 1245SOL  HW1   3734   2.224   1.397   2.865
 1245SOL  HW2   3735   2.357   1.469   2.862
 1246SOL  OW    3736   2.346   1.365   3.249
 1246SOL  HW1   3737   2.421   1.306   3.256
 1246SOL  HW2   3738   2.363   1.416   3.169
 1247SOL  OW    3739   2.331   1.380   3.515
 1247SOL  HW1   3740   2.336   1.320   3.441
 1247SOL  HW2   3741   2.253   1.353   3.563
 1248SOL  OW    3742   2.283   1.413   3.847
 1248SOL  HW1   3743   2.229   1.478   3.802
 1248SOL  HW2   3744   2.330   1.368   3.777
 1249SOL  OW    3745   2.275   1.710   0.134
 1249SOL  HW1   3746   2.310   1.623   0.114
 1249SOL  HW2   3747   2.192   1.692   0.178
 1250SOL  OW    3748   2.338   1.677   0.438
 1250SOL  HW1   3749   2.413   1.718   0.395
 1250SOL  HW2   3750   2.361   1.675   0.531
 1251SOL  OW    3751   2.274   1.693   0.765
 1251SOL  HW1   3752   2.347   1.688   0.703
 1251SOL  HW2   3753   2.197   1.667   0.715
 1252SOL  OW    3754   2.328   1.689   1.064
 1252SOL  HW1   3755   2.420   1.688   1.089
 1252SOL  HW2   3756   2.290   1.758   1.119
 1253SOL  OW    3757   2.289   1.675   1.419
 1253SOL  HW1   3758   2.241   1.695   1.338
 1253SOL  HW2   3759   2.292   1.758   1.466
 1254SOL  OW    3760   2.281   1.731   1.678
 1254SOL  HW1   3761   2.345   1.666   1.650
 1254SOL  HW2   3762   2.333   1.807   1.705
 1255SOL  OW    3763   2.275   1.672   1.965
 1255SOL  HW1   3764   2.222   1.707   1.893
 1255SOL  HW2   3765   2.211   1.643   2.030
 1256SOL  OW    3766   2.331   1.693   2.295
 1256SOL  HW1   3767   2.373   1.767   2.250
 1256SOL  HW2   3768   2.299   1.730   2.377
 1257SOL  OW    3769   2.321   1.703   2.651
 1257SOL  HW1   3770   2.284   1.788   2.674
 1257SOL  HW2   3771   2.271   1.640   2.703
 1258SOL  OW    3772   2.345   1.707   2.949
 1258SOL  HW1   3773   2.407   1.755   3.002
 1258SOL  HW2   3774   2.384   1.620   2.937
 1259SOL  OW    3775   2.331   1.692   3.247
 1259SOL  HW1   3776   2.347   1.618   3.306
 1259SOL  HW2   3777   2.408   1.747   3.257
 1260SOL  OW    3778   2.274   1.713   3.575
 1260SOL  HW1   3779   2.266   1.653   3.649
 1260SOL  HW2   3780   2.282   1.799   3.616
 1261SOL  OW    3781   2.274   1.719   3.881
 1261SOL  HW1   3782   2.289   1.625   3.883
 1261SOL  HW2   3783   2.269   1.741   3.788
 1262SOL  OW    3784   2.286   2.002   0.188
 1262SOL  HW1   3785   2.231   2.080   0.195
 1262SOL  HW2   3786   2.244   1.938   0.246
 1263SOL  OW    3787   2.345   1.970   0.449
 1263SOL  HW1   3788   2.400   2.047   0.459
 1263SOL  HW2   3789   2.406   1.897   0.445
 1264SOL  OW    3790   2.324   1.978   0.755
 1264SOL  HW1   3791   2.243   1.932   0.779
 1264SOL  HW2   3792   2.301   2.071   0.759
 1265SOL  OW    3793   2.270   1.972   1.082
 1265SOL  HW1   3794   2.247   1.992   1.173
 1265SOL  HW2   3795   2.201   1.912   1.053
 1266SOL  OW    3796   2.320   2.012   1.407
 1266SOL  HW1   3797   2.255   2.006   1.477
 1266SOL  HW2   3798   2.299   2.093   1.361
 1267SOL  OW    3799   2.301   1.982   1.654
 1267SOL  HW1   3800   2.387   2.024   1.646
 1267SOL  HW2   3801   2.317   1.902   1.704
 1268SOL  OW    3802   2.284   1.985   1.974
 1268SOL  HW1   3803   2.294   2.065   1.922
 1268SOL  HW2   3804   2.221   2.008   2.042
 1269SOL  OW    3805   2.269   1.973   2.321
 1269SOL  HW1   3806   2.350   2.013   2.289
 1269SOL  HW2   3807   2.208   1.981   2.248
 1270SOL  OW    3808   2.318   2.035   2.639
 1270SOL  HW1   3809   2.334   1.941   2.649
 1270SOL  HW2   3810   2.248   2.054   2.701
 1271SOL  OW    3811   2.313   1.971   2.928
 1271SOL  HW1   3812   2.324   1.884   2.890
 1271SOL  HW2   3813   2.398   1.991   2.967
 1272SOL  OW    3814   2.273   1.994   3.222
 1272SOL  HW1   3815   2.279   2.008   3.128
 1272SOL  HW2   3816   2.357   1.957   3.246
 1273SOL  OW    3817   2.302   1.982   3.553
 1273SOL  HW1   3818   2.276   2.005   3.643
 1273SOL  HW2   3819   2.229   2.012   3.499
 1274SOL  OW    3820   2.335   2.021   3.856
 1274SOL  HW1   3821   2.280   2.089   3.817
 1274SOL  HW2   3822   2.388   1.989   3.784
 1275SOL  OW    3823   2.311   2.270   0.172
 1275SOL  HW1   3824   2.232   2.309   0.134
 1275SOL  HW2   3825   2.377   2.339   0.164
 1276SOL  OW    3826   2.311   2.289   0.448
 1276SOL  HW1   3827   2.244   2.342   0.404
 1276SOL  HW2   3828   2.390   2.301   0.394
 1277SOL  OW    3829   2.343   2.318   0.767
 1277SOL  HW1   3830   2.249   2.303   0.782
 1277SOL  HW2   3831   2.349   2.346   0.676
 1278SOL  OW    3832   2.317   2.301   1.075
 1278SOL  HW1   3833   2.380   2.300   1.002
 1278SOL  HW2   3834   2.302   2.394   1.092
 1279SOL  OW    3835   2.291   2.303   1.399
 1279SOL  HW1   3836   2.273   2.284   1.307
 1279SOL  HW2   3837   2.316   2.395   1.400
 1280SOL  OW    3838   2.271   2.331   1.675
 1280SOL  HW1   3839   2.229   2.416   1.690
 1280SOL  HW2   3840   2.364   2.349   1.686
 1281SOL  OW    3841   2.322   2.319   2.012
 1281SOL  HW1   3842   2.337   2.411   1.989
 1281SOL  HW2   3843   2.232   2.301   1.984
 1282SOL  OW    3844   2.316   2.344   2.308
 1282SOL  HW1   3845   2.249   2.333   2.376
 1282SOL  HW2   3846   2.397   2.360   2.357
 1283SOL  OW    3847   2.326   2.324   2.594
 1283SOL  HW1   3848   2.268   2.357   2.663
 1283SOL  HW2   3849   2.351   2.236   2.623
 1284SOL  OW    3850   2.290   2.302   2.905
 1284SOL  HW1   3851   2.318   2.391   2.886
 1284SOL  HW2   3852   2.370   2.250   2.896
 1285SOL  OW    3853   2.297   2.299   3.239
 1285SOL  HW1   3854   2.204   2.291   3.261
 1285SOL  HW2   3855   2.311   2.393   3.227
 1286SOL  OW    3856   2.285   2.332   3.533
 1286SOL  HW1   3857   2.286   2.244   3.497
 1286SOL  HW2   3858   2.232   2.383   3.472
 1287SOL  OW    3859   2.324   2.274   3.844
 1287SOL  HW1   3860   2.370   2.342   3.795
 1287SOL  HW2   3861   2.394   2.224   3.887
 1288SOL  OW    3862   2.270   2.629   0.141
 1288SOL  HW1   3863   2.180   2.660   0.149
 1288SOL  HW2   3864   2.270   2.575   0.063
 1289SOL  OW    3865   2.344   2.601   0.467
 1289SOL  HW1   3866   2.296   2.557   0.537
 1289SOL  HW2   3867   2.276   2.624   0.403
 1290SOL  OW    3868   2.288   2.625   0.767
 1290SOL  HW1   3869   2.265   2.718   0.769
 1290SOL  HW2   3870   2.380   2.622   0.794
 1291SOL  OW    3871   2.297   2.592   1.046
 1291SOL  HW1   3872   2.356   2.580   0.971
 1291SOL  HW2   3873   2.214   2.619   1.008
 1292SOL  OW    3874   2.277   2.655   1.378
 1292SOL  HW1   3875   2.281   2.599   1.455
 1292SOL  HW2   3876   2.354   2.712   1.385
 1293SOL  OW    3877   2.268   2.652   1.654
 1293SOL  HW1   3878   2.327   2.630   1.726
 1293SOL  HW2   3879   2.320   2.637   1.575
 1294SOL  OW    3880   2.301   2.633   2.033
 1294SOL  HW1   3881   2.371   2.635   1.967
 1294SOL  HW2   3882   2.347   2.620   2.116
 1295SOL  OW    3883   2.325   2.612   2.346
 1295SOL  HW1   3884   2.305   2.521   2.364
 1295SOL  HW2   3885   2.246   2.646   2.303
 1296SOL  OW    3886   2.271   2.654   2.643
 1296SOL  HW1   3887   2.253   2.724   2.706
 1296SOL  HW2   3888   2.300   2.700   2.565
 1297SOL  OW    3889   2.342   2.596   2.894
 1297SOL  HW1   3890   2.402   2.556   2.958
 1297SOL  HW2   3891   2.260   2.606   2.942
 1298SOL  OW    3892   2.321   2.617   3.233
 1298SOL  HW1   3893   2.287   2.612   3.322
 1298SOL  HW2   3894   2.247   2.589   3.177
 1299SOL  OW    3895   2.342   2.625   3.523
 1299SOL  HW1   3896   2.249   2.615   3.501
 1299SOL  HW2   3897   2.375   2.687   3.458
 1300SOL  OW    3898   2.300   2.586   3.822
 1300SOL  HW1   3899   2.297   2.550   3.910
 1300SOL  HW2   3900   2.298   2.509   3.765
 1301SOL  OW    3901   2.279   2.948   0.170
 1301SOL  HW1   3902   2.346   2.926   0.235
 1301SOL  HW2   3903   2.228   3.018   0.211
 1302SOL  OW    3904   2.310   2.913   0.475
 1302SOL  HW1   3905   2.280   2.943   0.561
 1302SOL  HW2   3906   2.294   2.819   0.476
 1303SOL  OW    3907   2.333   2.954   0.773
 1303SOL  HW1   3908   2.254   2.971   0.721
 1303SOL  HW2   3909   2.306   2.974   0.863
 1304SOL  OW    3910   2.333   2.924   1.075
 1304SOL  HW1   3911   2.373   3.008   1.052
 1304SOL  HW2   3912   2.332   2.875   0.993
 1305SOL  OW    3913   2.337   2.914   1.376
 1305SOL  HW1   3914   2.274   2.979   1.345
 1305SOL  HW2   3915   2.334   2.921   1.472
 1306SOL  OW    3916   2.292   2.925   1.696
 1306SOL  HW1   3917   2.207   2.921   1.652
 1306SOL  HW2   3918   2.344   2.985   1.643
 1307SOL  OW    3919   2.321   2.918   1.977
 1307SOL  HW1   3920   2.259   2.889   1.909
 1307SOL  HW2   3921   2.267   2.922   2.057
 1308SOL  OW    3922   2.337   2.911   2.342
 1308SOL  HW1   3923   2.415   2.941   2.295
 1308SOL  HW2   3924   2.358   2.821   2.367
 1309SOL  OW    3925   2.284   2.928   2.618
 1309SOL  HW1   3926   2.241   2.902   2.537
 1309SOL  HW2   3927   2.378   2.927   2.597
 1310SOL  OW    3928   2.334   2.894   2.956
 1310SOL  HW1   3929   2.247   2.911   2.991
 1310SOL  HW2   3930   2.393   2.919   3.027
 1311SOL  OW    3931   2.310   2.930   3.232
 1311SOL  HW1   3932   2.285   3.005   3.178
 1311SOL  HW2   3933   2.303   2.855   3.173
 1312SOL  OW    3934   2.271   2.923   3.520
 1312SOL  HW1   3935   2.295   2.834   3.494
 1312SOL  HW2   3936   2.175   2.920   3.529
 1313SOL  OW    3937   2.295   2.935   3.846
 1313SOL  HW1   3938   2.311   3.016   3.797
 1313SOL  HW2   3939   2.219   2.896   3.803
 1314SOL  OW    3940   2.275   3.197   0.129
 1314SOL  HW1   3941   2.211   3.265   0.109
 1314SOL  HW2   3942   2.285   3.148   0.047
 1315SOL  OW    3943   2.283   3.239   0.436
 1315SOL  HW1   3944   2.209   3.300   0.440
 1315SOL  HW2   3945   2.274   3.197   0.351
 1316SOL  OW    3946   2.338   3.208   0.737
 1316SOL  HW1   3947   2.316   3.297   0.761
 1316SOL  HW2   3948   2.270   3.154   0.776
 1317SOL  OW    3949   2.338   3.214   1.071
 1317SOL  HW1   3950   2.260   3.215   1.127
 1317SOL  HW2   3951   2.399   3.154   1.114
 1318SOL  OW    3952   2.344   3.266   1.402
 1318SOL  HW1   3953   2.353   3.265   1.497
 1318SOL  HW2   3954   2.419   3.215   1.370
 1319SOL  OW    3955   2.273   3.238   1.731
 1319SOL  HW1   3956   2.199   3.261   1.788
 1319SOL  HW2   3957   2.251   3.152   1.696
 1320SOL  OW    3958   2.343   3.199   1.992
 1320SOL  HW1   3959   2.259   3.233   1.961
 1320SOL  HW2   3960   2.387   3.275   2.030
 1321SOL  OW    3961   2.293   3.201   2.323
 1321SOL  HW1   3962   2.327   3.270   2.381
 1321SOL  HW2   3963   2.318   3.119   2.366
 1322SOL  OW    3964   2.290   3.218   2.583
 1322SOL  HW1   3965   2.290   3.278   2.657
 1322SOL  HW2   3966   2.226   3.151   2.606
 1323SOL  OW    3967   2.308   3.203   2.918
 1323SOL  HW1   3968   2.383   3.146   2.903
 1323SOL  HW2   3969   2.274   3.178   3.003
 1324SOL  OW    3970   2.279   3.267   3.202
 1324SOL  HW1   3971   2.317   3.322   3.134
 1324SOL  HW2   3972   2.341   3.272   3.275
 1325SOL  OW    3973   2.309   3.207   3.505
 1325SOL  HW1   3974   2.330   3.125   3.551
 1325SOL  HW2   3975   2.394   3.248   3.489
 1326SOL  OW    3976   2.284   3.195   3.817
 1326SOL  HW1   3977   2.267   3.165   3.907
 1326SOL  HW2   3978   2.378   3.185   3.806
 1327SOL  OW    3979   2.307   3.551   0.121
 1327SOL  HW1   3980   2.214   3.527   0.122
 1327SOL  HW2   3981   2.353   3.468   0.136
 1328SOL  OW    3982   2.303   3.545   0.440
 1328SOL  HW1   3983   2.295   3.598   0.361
 1328SOL  HW2   3984   2.364   3.593   0.496
 1329SOL  OW    3985   2.297   3.504   0.747
 1329SOL  HW1   3986   2.300   3.577   0.809
 1329SOL  HW2   3987   2.206   3.475   0.749
 1330SOL  OW    3988   2.305   3.578   1.117
 1330SOL  HW1   3989   2.276   3.588   1.026
 1330SOL  HW2   3990   2.400   3.572   1.110
 1331SOL  OW    3991   2.346   3.532   1.351
 1331SOL  HW1   3992   2.440   3.545   1.367
 1331SOL  HW2   3993   2.312   3.621   1.338
 1332SOL  OW    3994   2.294   3.517   1.653
 1332SOL  HW1   3995   2.377   3.558   1.631
 1332SOL  HW2   3996   2.256   3.576   1.719
 1333SOL  OW    3997   2.275   3.535   1.987
 1333SOL  HW1   3998   2.206   3.531   1.922
 1333SOL  HW2   3999   2.331   3.459   1.968
 1334SOL  OW    4000   2.282   3.556   2.296
 1334SOL  HW1   4001   2.260   3.463   2.293
 1334SOL  HW2   4002   2.340   3.564   2.372
 1335SOL  OW    4003   2.336   3.518   2.618
 1335SOL  HW1   4004   2.416   3.517   2.671
 1335SOL  HW2   4005   2.296   3.603   2.637
 1336SOL  OW    4006   2.282   3.538   2.895
 1336SOL  HW1   4007   2.352   3.597   2.925
 1336SOL  HW2   4008   2.329   3.463   2.860
 1337SOL  OW    4009   2.281   3.547   3.212
 1337SOL  HW1   4010   2.233   3.475   3.172
 1337SOL  HW2   4011   2.266   3.537   3.306
 1338SOL  OW    4012   2.281   3.573   3.502
 1338SOL  HW1   4013   2.212   3.601   3.562
 1338SOL  HW2   4014   2.283   3.478   3.511
 1339SOL  OW    4015   2.313   3.542   3.826
 1339SOL  HW1   4016   2.397   3.553   3.782
 1339SOL  HW2   4017   2.306   3.448   3.841
 1340SOL  OW    4018   2.304   3.813   0.172
 1340SOL  HW1   4019   2.321   3.796   0.264
 1340SOL  HW2   4020   2.256   3.736   0.142
 1341SOL  OW    4021   2.285   3.822   0.447
 1341SOL  HW1   4022   2.295   3.869   0.530
 1341SOL  HW2   4023   2.347   3.749   0.453
 1342SOL  OW    4024   2.340   3.870   0.805
 1342SOL  HW1   4025   2.323   3.946   0.860
 1342SOL  HW2   4026   2.299   3.892   0.721
 1343SOL  OW    4027   2.320   3.859   1.075
 1343SOL  HW1   4028   2.232   3.888   1.100
 1343SOL  HW2   4029   2.366   3.851   1.159
 1344SOL  OW    4030   2.340   3.847   1.373
 1344SOL  HW1   4031   2.282   3.906   1.325
 1344SOL  HW2   4032   2.409   3.904   1.407
 1345SOL  OW    4033   2.319   3.850   1.662
 1345SOL  HW1   4034   2.319   3.916   1.593
 1345SOL  HW2   4035   2.264   3.887   1.731
 1346SOL  OW    4036   2.299   3.831   2.028
 1346SOL  HW1   4037   2.279   3.879   1.947
 1346SOL  HW2   4038   2.376   3.778   2.006
 1347SOL  OW    4039   2.298   3.872   2.303
 1347SOL  HW1   4040   2.258   3.958   2.317
 1347SOL  HW2   4041   2.284   3.854   2.210
 1348SOL  OW    4042   2.328   3.817   2.649
 1348SOL  HW1   4043   2.274   3.748   2.610
 1348SOL  HW2   4044   2.375   3.773   2.720
 1349SOL  OW    4045   2.306   3.827   2.902
 1349SOL  HW1   4046   2.388   3.795   2.941
 1349SOL  HW2   4047   2.242   3.823   2.974
 1350SOL  OW    4048   2.289   3.835   3.248
 1350SOL  HW1   4049   2.304   3.868   3.160
 1350SOL  HW2   4050   2.242   3.906   3.292
 1351SOL  OW    4051   2.344   3.860   3.542
 1351SOL  HW1   4052   2.334   3.768   3.567
 1351SOL  HW2   4053   2.270   3.904   3.585
 1352SOL  OW    4054   2.304   3.872   3.874
 1352SOL  HW1   4055   2.311   3.966   3.854
 1352SOL  HW2   4056   2.213   3.851   3.852
 1353SOL  OW    4057   2.599   0.190   0.145
 1353SOL  HW1   4058   2.523   0.147   0.184
 1353SOL  HW2   4059   2.580   0.192   0.052
 1354SOL  OW    4060   2.639   0.191   0.478
 1354SOL  HW1   4061   2.585   0.169   0.403
 1354SOL  HW2   4062   2.579   0.232   0.540
 1355SOL  OW    4063   2.588   0.161   0.739
 1355SOL  HW1   4064   2.646   0.104   0.791
 1355SOL  HW2   4065   2.618   0.149   0.648
 1356SOL  OW    4066   2.639   0.136   1.093
 1356SOL  HW1   4067   2.625   0.218   1.141
 1356SOL  HW2   4068   2.558   0.087   1.105
 1357SOL  OW    4069   2.648   0.128   1.376
 1357SOL  HW1   4070   2.669   0.112   1.284
 1357SOL  HW2   4071   2.639   0.223   1.382
 1358SOL  OW    4072   2.627   0.147   1.666
 1358SOL  HW1   4073   2.640   0.140   1.761
 1358SOL  HW2   4074   2.610   0.058   1.637
 1359SOL  OW    4075   2.578   0.146   2.012
 1359SOL  HW1   4076   2.483   0.137   2.001
 1359SOL  HW2   4077   2.598   0.232   1.975
 1360SOL  OW    4078   2.621   0.126   2.304
 1360SOL  HW1   4079   2.716   0.110   2.300
 1360SOL  HW2   4080   2.591   0.113   2.214
 1361SOL  OW    4081   2.605   0.136   2.634
 1361SOL  HW1   4082   2.585   0.126   2.541
 1361SOL  HW2   4083   2.523   0.115   2.678
 1362SOL  OW    4084   2.600   0.157   2.957
 1362SOL  HW1   4085   2.511   0.127   2.972
 1362SOL  HW2   4086   2.653   0.077   2.959
 1363SOL  OW    4087   2.619   0.163   3.197
 1363SOL  HW1   4088   2.557   0.231   3.169
 1363SOL  HW2   4089   2.610   0.095   3.130
 1364SOL  OW    4090   2.590   0.122   3.560
 1364SOL  HW1   4091   2.561   0.212   3.546
 1364SOL  HW2   4092   2.619   0.120   3.651
 1365SOL  OW    4093   2.642   0.129   3.824
 1365SOL  HW1   4094   2.551   0.155   3.834
 1365SOL  HW2   4095   2.646   0.040   3.860
 1366SOL  OW    4096   2.601   0.469   0.164
 1366SOL  HW1   4097   2.538   0.520   0.213
 1366SOL  HW2   4098   2.596   0.381   0.201
 1367SOL  OW    4099   2.630   0.494   0.445
 1367SOL  HW1   4100   2.551   0.458   0.486
 1367SOL  HW2   4101   2.702   0.452   0.492
 1368SOL  OW    4102   2.628   0.466   0.754
 1368SOL  HW1   4103   2.643   0.465   0.659
 1368SOL  HW2   4104   2.655   0.379   0.784
 1369SOL  OW    4105   2.648   0.429   1.094
 1369SOL  HW1   4106   2.638   0.348   1.044
 1369SOL  HW2   4107   2.733   0.421   1.137
 1370SOL  OW    4108   2.634   0.495   1.386
 1370SOL  HW1   4109   2.573   0.422   1.373
 1370SOL  HW2   4110   2.636   0.507   1.481
 1371SOL  OW    4111   2.601   0.488   1.714
 1371SOL  HW1   4112   2.628   0.462   1.626
 1371SOL  HW2   4113   2.619   0.582   1.718
 1372SOL  OW    4114   2.615   0.483   1.981
 1372SOL  HW1   4115   2.701   0.526   1.980
 1372SOL  HW2   4116   2.636   0.391   1.998
 1373SOL  OW    4117   2.623   0.491   2.293
 1373SOL  HW1   4118   2.631   0.573   2.245
 1373SOL  HW2   4119   2.580   0.515   2.375
 1374SOL  OW    4120   2.614   0.498   2.639
 1374SOL  HW1   4121   2.526   0.536   2.633
 1374SOL  HW2   4122   2.600   0.403   2.630
 1375SOL  OW    4123   2.646   0.452   2.963
 1375SOL  HW1   4124   2.673   0.415   3.047
 1375SOL  HW2   4125   2.722   0.438   2.906
 1376SOL  OW    4126   2.588   0.463   3.229
 1376SOL  HW1   4127   2.510   0.505   3.267
 1376SOL  HW2   4128   2.660   0.521   3.253
 1377SOL  OW    4129   2.639   0.494   3.557
 1377SOL  HW1   4130   2.616   0.585   3.575
 1377SOL  HW2   4131   2.628   0.485   3.462
 1378SOL  OW    4132   2.626   0.456   3.847
 1378SOL  HW1   4133   2.708   0.433   3.803
 1378SOL  HW2   4134   2.562   0.392   3.813
 1379SOL  OW    4135   2.616   0.731   0.154
 1379SOL  HW1   4136   2.558   0.657   0.136
 1379SOL  HW2   4137   2.674   0.699   0.224
 1380SOL  OW    4138   2.644   0.786   0.485
 1380SOL  HW1   4139   2.589   0.853   0.526
 1380SOL  HW2   4140   2.629   0.707   0.537
 1381SOL  OW    4141   2.607   0.772   0.732
 1381SOL  HW1   4142   2.692   0.733   0.750
 1381SOL  HW2   4143   2.544   0.706   0.763
 1382SOL  OW    4144   2.606   0.767   1.057
 1382SOL  HW1   4145   2.671   0.722   1.111
 1382SOL  HW2   4146   2.658   0.819   0.995
 1383SOL  OW    4147   2.578   0.784   1.379
 1383SOL  HW1   4148   2.639   0.772   1.452
 1383SOL  HW2   4149   2.584   0.878   1.358
 1384SOL  OW    4150   2.609   0.749   1.695
 1384SOL  HW1   4151   2.664   0.685   1.740
 1384SOL  HW2   4152   2.519   0.725   1.719
 1385SOL  OW    4153   2.610   0.767   2.006
 1385SOL  HW1   4154   2.530   0.813   2.032
 1385SOL  HW2   4155   2.601   0.680   2.045
 1386SOL  OW    4156   2.576   0.802   2.273
 1386SOL  HW1   4157   2.644   0.821   2.338
 1386SOL  HW2   4158   2.510   0.870   2.287
 1387SOL  OW    4159   2.611   0.746   2.617
 1387SOL  HW1   4160   2.677   0.695   2.665
 1387SOL  HW2   4161   2.637   0.738   2.525
 1388SOL  OW    4162   2.598   0.798   2.915
 1388SOL  HW1   4163   2.611   0.843   2.831
 1388SOL  HW2   4164   2.503   0.791   2.923
 1389SOL  OW    4165   2.626   0.749   3.192
 1389SOL  HW1   4166   2.708   0.770   3.237
 1389SOL  HW2   4167   2.563   0.812   3.227
 1390SOL  OW    4168   2.608   0.772   3.535
 1390SOL  HW1   4169   2.644   0.778   3.624
 1390SOL  HW2   4170   2.542   0.703   3.541
 1391SOL  OW    4171   2.652   0.786   3.886
 1391SOL  HW1   4172   2.631   0.758   3.797
 1391SOL  HW2   4173   2.586   0.851   3.908
 1392SOL  OW    4174   2.599   1.100   0.158
 1392SOL  HW1   4175   2.535   1.155   0.203
 1392SOL  HW2   4176   2.583   1.115   0.065
 1393SOL  OW    4177   2.624   1.116   0.474
 1393SOL  HW1   4178   2.643   1.207   0.451
 1393SOL  HW2   4179   2.645   1.109   0.567
 1394SOL  OW    4180   2.647   1.095   0.739
 1394SOL  HW1   4181   2.596   1.015   0.749
 1394SOL  HW2   4182   2.721   1.070   0.684
 1395SOL  OW    4183   2.631   1.076   1.110
 1395SOL  HW1   4184   2.620   1.171   1.116
 1395SOL  HW2   4185   2.600   1.053   1.023
 1396SOL  OW    4186   2.640   1.045   1.355
 1396SOL  HW1   4187   2.602   1.006   1.277
 1396SOL  HW2   4188   2.601   0.997   1.428
 1397SOL  OW    4189   2.581   1.076   1.659
 1397SOL  HW1   4190   2.640   1.126   1.602
 1397SOL  HW2   4191   2.533   1.143   1.707
 1398SOL  OW    4192   2.633   1.081   2.027
 1398SOL  HW1   4193   2.677   1.159   1.993
 1398SOL  HW2   4194   2.691   1.009   2.002
 1399SOL  OW    4195   2.598   1.078   2.277
 1399SOL  HW1   4196   2.614   1.026   2.355
 1399SOL  HW2   4197   2.506   1.061   2.254
 1400SOL  OW    4198   2.646   1.051   2.584
 1400SOL  HW1   4199   2.720   1.039   2.524
 1400SOL  HW2   4200   2.589   0.976   2.567
 1401SOL  OW    4201   2.592   1.101   2.892
 1401SOL  HW1   4202   2.568   1.010   2.880
 1401SOL  HW2   4203   2.509   1.146   2.909
 1402SOL  OW    4204   2.625   1.097   3.251
 1402SOL  HW1   4205   2.683   1.091   3.326
 1402SOL  HW2   4206   2.659   1.032   3.189
 1403SOL  OW    4207   2.591   1.042   3.534
 1403SOL  HW1   4208   2.645   1.117   3.559
 1403SOL  HW2   4209   2.588   0.986   3.612
 1404SOL  OW    4210   2.592   1.093   3.835
 1404SOL  HW1   4211   2.559   1.032   3.769
 1404SOL  HW2   4212   2.685   1.073   3.842
 1405SOL  OW    4213   2.611   1.354   0.159
 1405SOL  HW1   4214   2.574   1.272   0.127
 1405SOL  HW2   4215   2.692   1.328   0.203
 1406SOL  OW    4216   2.590   1.399   0.427
 1406SOL  HW1   4217   2.669   1.430   0.471
 1406SOL  HW2   4218   2.614   1.395   0.335
 1407SOL  OW    4219   2.653   1.399   0.744
 1407SOL  HW1   4220   2.575   1.380   0.693
 1407SOL  HW2   4221   2.687   1.313   0.768
 1408SOL  OW    4222   2.577   1.371   1.049
 1408SOL  HW1   4223   2.591   1.440   1.114
 1408SOL  HW2   4224   2.664   1.337   1.032
 1409SOL  OW    4225   2.593   1.414   1.393
 1409SOL  HW1   4226   2.621   1.331   1.356
 1409SOL  HW2   4227   2.609   1.406   1.487
 1410SOL  OW    4228   2.590   1.389   1.673
 1410SOL  HW1   4229   2.633   1.467   1.637
 1410SOL  HW2   4230   2.658   1.322   1.675
 1411SOL  OW    4231   2.653   1.347   2.019
 1411SOL  HW1   4232   2.639   1.253   2.006
 1411SOL  HW2   4233   2.723   1.369   1.957
 1412SOL  OW    4234   2.637   1.350   2.281
 1412SOL  HW1   4235   2.718   1.338   2.232
 1412SOL  HW2   4236   2.666   1.384   2.366
 1413SOL  OW    4237   2.606   1.414   2.618
 1413SOL  HW1   4238   2.666   1.475   2.661
 1413SOL  HW2   4239   2.527   1.466   2.601
 1414SOL  OW    4240   2.628   1.407   2.949
 1414SOL  HW1   4241   2.539   1.431   2.924
 1414SOL  HW2   4242   2.670   1.381   2.868
 1415SOL  OW    4243   2.613   1.385   3.248
 1415SOL  HW1   4244   2.525   1.351   3.262
 1415SOL  HW2   4245   2.601   1.464   3.195
 1416SOL  OW    4246   2.596   1.413   3.500
 1416SOL  HW1   4247   2.591   1.475   3.572
 1416SOL  HW2   4248   2.689   1.410   3.477
 1417SOL  OW    4249   2.591   1.409   3.833
 1417SOL  HW1   4250   2.520   1.471   3.818
 1417SOL  HW2   4251   2.566   1.362   3.913
 1418SOL  OW    4252   2.587   1.667   0.156
 1418SOL  HW1   4253   2.589   1.684   0.251
 1418SOL  HW2   4254   2.678   1.647   0.134
 1419SOL  OW    4255   2.643   1.658   0.424
 1419SOL  HW1   4256   2.678   1.583   0.471
 1419SOL  HW2   4257   2.548   1.645   0.425
 1420SOL  OW    4258   2.613   1.729   0.752
 1420SOL  HW1   4259   2.535   1.780   0.774
 1420SOL  HW2   4260   2.579   1.642   0.730
 1421SOL  OW    4261   2.652   1.723   1.060
 1421SOL  HW1   4262   2.698   1.782   0.999
 1421SOL  HW2   4263   2.661   1.765   1.145
 1422SOL  OW    4264   2.641   1.707   1.386
 1422SOL  HW1   4265   2.583   1.717   1.310
 1422SOL  HW2   4266   2.635   1.614   1.408
 1423SOL  OW    4267   2.609   1.718   1.716
 1423SOL  HW1   4268   2.589   1.808   1.739
 1423SOL  HW2   4269   2.528   1.670   1.733
 1424SOL  OW    4270   2.636   1.732   1.998
 1424SOL  HW1   4271   2.662   1.727   2.090
 1424SOL  HW2   4272   2.673   1.815   1.968
 1425SOL  OW    4273   2.640   1.721   2.285
 1425SOL  HW1   4274   2.687   1.700   2.365
 1425SOL  HW2   4275   2.705   1.712   2.215
 1426SOL  OW    4276   2.579   1.685   2.644
 1426SOL  HW1   4277   2.546   1.717   2.560
 1426SOL  HW2   4278   2.622   1.602   2.623
 1427SOL  OW    4279   2.599   1.708   2.884
 1427SOL  HW1   4280   2.633   1.638   2.939
 1427SOL  HW2   4281   2.545   1.664   2.818
 1428SOL  OW    4282   2.604   1.702   3.201
 1428SOL  HW1   4283   2.589   1.612   3.171
 1428SOL  HW2   4284   2.525   1.749   3.175
 1429SOL  OW    4285   2.647   1.665   3.571
 1429SOL  HW1   4286   2.697   1.741   3.542
 1429SOL  HW2   4287   2.559   1.680   3.538
 1430SOL  OW    4288   2.593   1.732   3.855
 1430SOL  HW1   4289   2.582   1.795   3.926
 1430SOL  HW2   4290   2.687   1.719   3.849
 1431SOL  OW    4291   2.582   1.965   0.120
 1431SOL  HW1   4292   2.550   1.877   0.102
 1431SOL  HW2   4293   2.537   1.992   0.200
 1432SOL  OW    4294   2.623   2.025   0.454
 1432SOL  HW1   4295   2.536   2.036   0.414
 1432SOL  HW2   4296   2.648   1.936   0.430
 1433SOL  OW    4297   2.611   2.007   0.772
 1433SOL  HW1   4298   2.601   1.913   0.785
 1433SOL  HW2   4299   2.529   2.035   0.730
 1434SOL  OW    4300   2.630   1.998   1.094
 1434SOL  HW1   4301   2.638   2.053   1.017
 1434SOL  HW2   4302   2.720   1.968   1.111
 1435SOL  OW    4303   2.655   1.988   1.346
 1435SOL  HW1   4304   2.597   2.064   1.350
 1435SOL  HW2   4305   2.738   2.018   1.384
 1436SOL  OW    4306   2.585   2.004   1.680
 1436SOL  HW1   4307   2.605   2.089   1.720
 1436SOL  HW2   4308   2.661   1.950   1.701
 1437SOL  OW    4309   2.651   2.010   2.002
 1437SOL  HW1   4310   2.683   1.921   2.014
 1437SOL  HW2   4311   2.671   2.031   1.910
 1438SOL  OW    4312   2.639   1.981   2.333
 1438SOL  HW1   4313   2.673   2.033   2.406
 1438SOL  HW2   4314   2.673   2.025   2.255
 1439SOL  OW    4315   2.576   2.010   2.650
 1439SOL  HW1   4316   2.665   1.993   2.681
 1439SOL  HW2   4317   2.531   1.926   2.660
 1440SOL  OW    4318   2.638   2.028   2.915
 1440SOL  HW1   4319   2.545   2.012   2.927
 1440SOL  HW2   4320   2.676   2.023   3.003
 1441SOL  OW    4321   2.641   2.004   3.240
 1441SOL  HW1   4322   2.635   2.091   3.200
 1441SOL  HW2   4323   2.585   2.009   3.317
 1442SOL  OW    4324   2.580   1.976   3.543
 1442SOL  HW1   4325   2.522   2.013   3.609
 1442SOL  HW2   4326   2.620   1.900   3.584
 1443SOL  OW    4327   2.580   2.019   3.873
 1443SOL  HW1   4328   2.493   2.003   3.909
 1443SOL  HW2   4329   2.605   2.105   3.908
 1444SOL  OW    4330   2.649   2.276   0.189
 1444SOL  HW1   4331   2.651   2.356   0.136
 1444SOL  HW2   4332   2.628   2.306   0.277
 1445SOL  OW    4333   2.581   2.306   0.489
 1445SOL  HW1   4334   2.619   2.384   0.528
 1445SOL  HW2   4335   2.621   2.300   0.402
 1446SOL  OW    4336   2.581   2.269   0.731
 1446SOL  HW1   4337   2.500   2.314   0.755
 1446SOL  HW2   4338   2.640   2.284   0.805
 1447SOL  OW    4339   2.616   2.333   1.047
 1447SOL  HW1   4340   2.617   2.357   0.954
 1447SOL  HW2   4341   2.695   2.374   1.083
 1448SOL  OW    4342   2.585   2.313   1.363
 1448SOL  HW1   4343   2.537   2.380   1.413
 1448SOL  HW2   4344   2.518   2.265   1.315
 1449SOL  OW    4345   2.634   2.344   1.714
 1449SOL  HW1   4346   2.648   2.249   1.705
 1449SOL  HW2   4347   2.687   2.369   1.789
 1450SOL  OW    4348   2.646   2.309   2.027
 1450SOL  HW1   4349   2.734   2.342   2.041
 1450SOL  HW2   4350   2.601   2.322   2.111
 1451SOL  OW    4351   2.590   2.273   2.320
 1451SOL  HW1   4352   2.499   2.251   2.338
 1451SOL  HW2   4353   2.631   2.190   2.296
 1452SOL  OW    4354   2.580   2.339   2.631
 1452SOL  HW1   4355   2.632   2.274   2.677
 1452SOL  HW2   4356   2.509   2.362   2.692
 1453SOL  OW    4357   2.652   2.293   2.922
 1453SOL  HW1   4358   2.601   2.249   2.991
 1453SOL  HW2   4359   2.596   2.288   2.844
 1454SOL  OW    4360   2.635   2.287   3.234
 1454SOL  HW1   4361   2.657   2.238   3.313
 1454SOL  HW2   4362   2.650   2.379   3.258
 1455SOL  OW    4363   2.628   2.346   3.558
 1455SOL  HW1   4364   2.588   2.270   3.600
 1455SOL  HW2   4365   2.606   2.420   3.615
 1456SOL  OW    4366   2.585   2.306   3.853
 1456SOL  HW1   4367   2.495   2.275   3.864
 1456SOL  HW2   4368   2.637   2.226   3.856
 1457SOL  OW    4369   2.587   2.610   0.137
 1457SOL  HW1   4370   2.609   2.520   0.161
 1457SOL  HW2   4371   2.558   2.603   0.046
 1458SOL  OW    4372   2.585   2.616   0.435
 1458SOL  HW1   4373   2.499   2.574   0.441
 1458SOL  HW2   4374   2.646   2.553   0.473
 1459SOL  OW    4375   2.623   2.589   0.787
 1459SOL  HW1   4376   2.714   2.601   0.763
 1459SOL  HW2   4377   2.617   2.497   0.815
 1460SOL  OW    4378   2.591   2.647   1.039
 1460SOL  HW1   4379   2.616   2.733   1.004
 1460SOL  HW2   4380   2.496   2.653   1.051
 1461SOL  OW    4381   2.617   2.601   1.363
 1461SOL  HW1   4382   2.573   2.644   1.436
 1461SOL  HW2   4383   2.618   2.508   1.386
 1462SOL  OW    4384   2.613   2.643   1.726
 1462SOL  HW1   4385   2.630   2.737   1.720
 1462SOL  HW2   4386   2.530   2.630   1.679
 1463SOL  OW    4387   2.600   2.588   2.018
 1463SOL  HW1   4388   2.647   2.511   1.986
 1463SOL  HW2   4389   2.667   2.643   2.057
 1464SOL  OW    4390   2.622   2.591   2.329
 1464SOL  HW1   4391   2.667   2.671   2.357
 1464SOL  HW2   4392   2.666   2.567   2.247
 1465SOL  OW    4393   2.617   2.628   2.604
 1465SOL  HW1   4394   2.642   2.624   2.696
 1465SOL  HW2   4395   2.673   2.563   2.561
 1466SOL  OW    4396   2.611   2.590   2.944
 1466SOL  HW1   4397   2.559   2.639   3.007
 1466SOL  HW2   4398   2.668   2.534   2.997
 1467SOL  OW    4399   2.588   2.638   3.255
 1467SOL  HW1   4400   2.530   2.589   3.195
 1467SOL  HW2   4401   2.576   2.595   3.340
 1468SOL  OW    4402   2.635   2.577   3.520
 1468SOL  HW1   4403   2.593   2.566   3.435
 1468SOL  HW2   4404   2.644   2.672   3.531
 1469SOL  OW    4405   2.613   2.623   3.880
 1469SOL  HW1   4406   2.587   2.602   3.790
 1469SOL  HW2   4407   2.540   2.592   3.934
 1470SOL  OW    4408   2.605   2.953   0.127
 1470SOL  HW1   4409   2.557   3.035   0.134
 1470SOL  HW2   4410   2.636   2.936   0.216
 1471SOL  OW    4411   2.605   2.887   0.481
 1471SOL  HW1   4412   2.689   2.858   0.516
 1471SOL  HW2   4413   2.540   2.842   0.535
 1472SOL  OW    4414   2.587   2.904   0.791
 1472SOL  HW1   4415   2.602   2.876   0.701
 1472SOL  HW2   4416   2.497   2.935   0.793
 1473SOL  OW    4417   2.618   2.884   1.037
 1473SOL  HW1   4418   2.553   2.863   0.971
 1473SOL  HW2   4419   2.595   2.972   1.066
 1474SOL  OW    4420   2.616   2.907   1.359
 1474SOL  HW1   4421   2.614   3.003   1.353
 1474SOL  HW2   4422   2.585   2.888   1.447
 1475SOL  OW    4423   2.624   2.901   1.700
 1475SOL  HW1   4424   2.689   2.847   1.745
 1475SOL  HW2   4425   2.596   2.965   1.766
 1476SOL  OW    4426   2.606   2.898   1.971
 1476SOL  HW1   4427   2.549   2.961   2.016
 1476SOL  HW2   4428   2.650   2.949   1.904
 1477SOL  OW    4429   2.594   2.885   2.292
 1477SOL  HW1   4430   2.518   2.843   2.254
 1477SOL  HW2   4431   2.564   2.974   2.314
 1478SOL  OW    4432   2.648   2.950   2.605
 1478SOL  HW1   4433   2.649   2.940   2.700
 1478SOL  HW2   4434   2.624   2.863   2.573
 1479SOL  OW    4435   2.621   2.928   2.949
 1479SOL  HW1   4436   2.661   2.884   2.874
 1479SOL  HW2   4437   2.550   2.980   2.912
 1480SOL  OW    4438   2.594   2.907   3.215
 1480SOL  HW1   4439   2.648   2.887   3.292
 1480SOL  HW2   4440   2.543   2.983   3.240
 1481SOL  OW    4441   2.579   2.908   3.569
 1481SOL  HW1   4442   2.607   2.836   3.625
 1481SOL  HW2   4443   2.566   2.982   3.629
 1482SOL  OW    4444   2.648   2.892   3.843
 1482SOL  HW1   4445   2.569   2.922   3.886
 1482SOL  HW2   4446   2.678   2.818   3.896
 1483SOL  OW    4447   2.606   3.230   0.158
 1483SOL  HW1   4448   2.582   3.304   0.103
 1483SOL  HW2   4449   2.662   3.268   0.226
 1484SOL  OW    4450   2.577   3.258   0.499
 1484SOL  HW1   4451   2.565   3.231   0.408
 1484SOL  HW2   4452   2.564   3.178   0.550
 1485SOL  OW    4453   2.628   3.244   0.771
 1485SOL  HW1   4454   2.693   3.285   0.715
 1485SOL  HW2   4455   2.674   3.228   0.854
 1486SOL  OW    4456   2.602   3.203   1.084
 1486SOL  HW1   4457   2.521   3.188   1.133
 1486SOL  HW2   4458   2.607   3.129   1.023
 1487SOL  OW    4459   2.579   3.257   1.378
 1487SOL  HW1   4460   2.662   3.208   1.374
 1487SOL  HW2   4461   2.576   3.307   1.297
 1488SOL  OW    4462   2.609   3.217   1.730
 1488SOL  HW1   4463   2.537   3.191   1.788
 1488SOL  HW2   4464   2.597   3.162   1.652
 1489SOL  OW    4465   2.589   3.203   1.973
 1489SOL  HW1   4466   2.499   3.212   2.002
 1489SOL  HW2   4467   2.584   3.200   1.878
 1490SOL  OW    4468   2.628   3.270   2.287
 1490SOL  HW1   4469   2.543   3.236   2.259
 1490SOL  HW2   4470   2.688   3.245   2.216
 1491SOL  OW    4471   2.648   3.213   2.627
 1491SOL  HW1   4472   2.619   3.299   2.658
 1491SOL  HW2   4473   2.631   3.214   2.533
 1492SOL  OW    4474   2.579   3.230   2.935
 1492SOL  HW1   4475   2.630   3.283   2.874
 1492SOL  HW2   4476   2.636   3.158   2.960
 1493SOL  OW    4477   2.618   3.210   3.257
 1493SOL  HW1   4478   2.698   3.246   3.296
 1493SOL  HW2   4479   2.587   3.279   3.199
 1494SOL  OW    4480   2.653   3.228   3.549
 1494SOL  HW1   4481   2.705   3.220   3.469
 1494SOL  HW2   4482   2.584   3.162   3.540
 1495SOL  OW    4483   2.639   3.210   3.875
 1495SOL  HW1   4484   2.618   3.165   3.957
 1495SOL  HW2   4485   2.702   3.277   3.900
 1496SOL  OW    4486   2.598   3.561   0.123
 1496SOL  HW1   4487   2.635   3.518   0.200
 1496SOL  HW2   4488   2.619   3.502   0.050
 1497SOL  OW    4489   2.598   3.541   0.464
 1497SOL  HW1   4490   2.520   3.569   0.416
 1497SOL  HW2   4491   2.565   3.511   0.548
 1498SOL  OW    4492   2.643   3.578   0.738
 1498SOL  HW1   4493   2.656   3.543   0.826
 1498SOL  HW2   4494   2.731   3.576   0.699
 1499SOL  OW    4495   2.597   3.527   1.075
 1499SOL  HW1   4496   2.533   3.457   1.066
 1499SOL  HW2   4497   2.661   3.494   1.138
 1500SOL  OW    4498   2.615   3.567   1.406
 1500SOL  HW1   4499   2.521   3.578   1.392
 1500SOL  HW2   4500   2.623   3.478   1.441
 1501SOL  OW    4501   2.577   3.535   1.702
 1501SOL  HW1   4502   2.608   3.479   1.773
 1501SOL  HW2   4503   2.655   3.582   1.672
 1502SOL  OW    4504   2.612   3.509   1.992
 1502SOL  HW1   4505   2.689   3.499   2.048
 1502SOL  HW2   4506   2.559   3.431   2.010
 1503SOL  OW    4507   2.608   3.513   2.328
 1503SOL  HW1   4508   2.584   3.604   2.311
 1503SOL  HW2   4509   2.557   3.462   2.265
 1504SOL  OW    4510   2.601   3.546   2.617
 1504SOL  HW1   4511   2.592   3.587   2.531
 1504SOL  HW2   4512   2.557   3.461   2.608
 1505SOL  OW    4513   2.646   3.508   2.892
 1505SOL  HW1   4514   2.625   3.478   2.981
 1505SOL  HW2   4515   2.615   3.599   2.890
 1506SOL  OW    4516   2.599   3.533   3.215
 1506SOL  HW1   4517   2.520   3.579   3.241
 1506SOL  HW2   4518   2.568   3.451   3.176
 1507SOL  OW    4519   2.636   3.518   3.505
 1507SOL  HW1   4520   2.727   3.496   3.483
 1507SOL  HW2   4521   2.633   3.614   3.501
 1508SOL  OW    4522   2.608   3.560   3.874
 1508SOL  HW1   4523   2.605   3.495   3.804
 1508SOL  HW2   4524   2.685   3.535   3.927
 1509SOL  OW    4525   2.634   3.851   0.172
 1509SOL  HW1   4526   2.684   3.932   0.175
 1509SOL  HW2   4527   2.585   3.857   0.090
 1510SOL  OW    4528   2.630   3.825   0.466
 1510SOL  HW1   4529   2.597   3.912   0.444
 1510SOL  HW2   4530   2.702   3.841   0.527
 1511SOL  OW    4531   2.637   3.832   0.782
 1511SOL  HW1   4532   2.560   3.851   0.835
 1511SOL  HW2   4533   2.680   3.916   0.769
 1512SOL  OW    4534   2.614   3.846   1.044
 1512SOL  HW1   4535   2.548   3.786   1.078
 1512SOL  HW2   4536   2.649   3.802   0.967
 1513SOL  OW    4537   2.629   3.875   1.356
 1513SOL  HW1   4538   2.604   3.899   1.266
 1513SOL  HW2   4539   2.718   3.841   1.348
 1514SOL  OW    4540   2.605   3.810   1.655
 1514SOL  HW1   4541   2.689   3.837   1.691
 1514SOL  HW2   4542   2.626   3.777   1.567
 1515SOL  OW    4543   2.655   3.846   1.988
 1515SOL  HW1   4544   2.712   3.769   1.995
 1515SOL  HW2   4545   2.582   3.826   2.048
 1516SOL  OW    4546   2.597   3.885   2.288
 1516SOL  HW1   4547   2.529   3.925   2.341
 1516SOL  HW2   4548   2.614   3.800   2.330
 1517SOL  OW    4549   2.633   3.829   2.581
 1517SOL  HW1   4550   2.694   3.773   2.629
 1517SOL  HW2   4551   2.669   3.832   2.492
 1518SOL  OW    4552   2.630   3.806   2.937
 1518SOL  HW1   4553   2.547   3.775   2.900
 1518SOL  HW2   4554   2.676   3.845   2.863
 1519SOL  OW    4555   2.595   3.866   3.252
 1519SOL  HW1   4556   2.515   3.823   3.223
 1519SOL  HW2   4557   2.605   3.941   3.193
 1520SOL  OW    4558   2.633   3.808   3.555
 1520SOL  HW1   4559   2.691   3.814   3.631
 1520SOL  HW2   4560   2.644   3.718   3.523
 1521SOL  OW    4561   2.655   3.826   3.828
 1521SOL  HW1   4562   2.662   3.821   3.733
 1521SOL  HW2   4563   2.726   3.771   3.860
 1522SOL  OW    4564   2.948   0.127   0.167
 1522SOL  HW1   4565   2.951   0.192   0.097
 1522SOL  HW2   4566   2.987   0.048   0.128
 1523SOL  OW    4567   2.943   0.117   0.466
 1523SOL  HW1   4568   2.873   0.056   0.487
 1523SOL  HW2   4569   2.950   0.113   0.370
 1524SOL  OW    4570   2.929   0.138   0.799
 1524SOL  HW1   4571   2.947   0.131   0.893
 1524SOL  HW2   4572   3.009   0.106   0.757
 1525SOL  OW    4573   2.896   0.143   1.105
 1525SOL  HW1   4574   2.808   0.106   1.113
 1525SOL  HW2   4575   2.947   0.100   1.173
 1526SOL  OW    4576   2.898   0.180   1.351
 1526SOL  HW1   4577   2.893   0.084   1.348
 1526SOL  HW2   4578   2.908   0.200   1.444
 1527SOL  OW    4579   2.922   0.120   1.707
 1527SOL  HW1   4580   2.949   0.146   1.619
 1527SOL  HW2   4581   2.837   0.079   1.694
 1528SOL  OW    4582   2.946   0.182   2.039
 1528SOL  HW1   4583   2.870   0.225   2.077
 1528SOL  HW2   4584   2.978   0.123   2.107
 1529SOL  OW    4585   2.937   0.175   2.308
 1529SOL  HW1   4586   2.957   0.224   2.228
 1529SOL  HW2   4587   2.911   0.243   2.371
 1530SOL  OW    4588   2.956   0.165   2.646
 1530SOL  HW1   4589   2.945   0.123   2.731
 1530SOL  HW2   4590   2.912   0.107   2.584
 1531SOL  OW    4591   2.902   0.154   2.941
 1531SOL  HW1   4592   2.959   0.089   2.900
 1531SOL  HW2   4593   2.857   0.105   3.011
 1532SOL  OW    4594   2.899   0.131   3.269
 1532SOL  HW1   4595   2.985   0.112   3.230
 1532SOL  HW2   4596   2.860   0.045   3.284
 1533SOL  OW    4597   2.918   0.128   3.525
 1533SOL  HW1   4598   2.963   0.211   3.542
 1533SOL  HW2   4599   2.872   0.143   3.442
 1534SOL  OW    4600   2.915   0.164   3.880
 1534SOL  HW1   4601   2.942   0.132   3.794
 1534SOL  HW2   4602   2.928   0.258   3.876
 1535SOL  OW    4603   2.962   0.474   0.170
 1535SOL  HW1   4604   2.972   0.564   0.141
 1535SOL  HW2   4605   2.891   0.477   0.234
 1536SOL  OW    4606   2.909   0.490   0.439
 1536SOL  HW1   4607   2.956   0.408   0.450
 1536SOL  HW2   4608   2.871   0.484   0.351
 1537SOL  OW    4609   2.892   0.499   0.798
 1537SOL  HW1   4610   2.952   0.509   0.872
 1537SOL  HW2   4611   2.891   0.405   0.780
 1538SOL  OW    4612   2.907   0.476   1.074
 1538SOL  HW1   4613   2.812   0.465   1.076
 1538SOL  HW2   4614   2.924   0.530   0.997
 1539SOL  OW    4615   2.909   0.444   1.355
 1539SOL  HW1   4616   2.936   0.374   1.297
 1539SOL  HW2   4617   2.982   0.454   1.416
 1540SOL  OW    4618   2.927   0.457   1.693
 1540SOL  HW1   4619   2.904   0.509   1.616
 1540SOL  HW2   4620   2.877   0.376   1.684
 1541SOL  OW    4621   2.900   0.497   2.011
 1541SOL  HW1   4622   2.843   0.421   2.023
 1541SOL  HW2   4623   2.850   0.556   1.955
 1542SOL  OW    4624   2.955   0.430   2.318
 1542SOL  HW1   4625   2.982   0.482   2.241
 1542SOL  HW2   4626   2.985   0.341   2.298
 1543SOL  OW    4627   2.951   0.448   2.591
 1543SOL  HW1   4628   2.988   0.499   2.519
 1543SOL  HW2   4629   2.996   0.481   2.669
 1544SOL  OW    4630   2.904   0.443   2.919
 1544SOL  HW1   4631   2.891   0.523   2.970
 1544SOL  HW2   4632   2.999   0.441   2.903
 1545SOL  OW    4633   2.909   0.443   3.243
 1545SOL  HW1   4634   2.920   0.538   3.240
 1545SOL  HW2   4635   2.907   0.417   3.151
 1546SOL  OW    4636   2.887   0.449   3.554
 1546SOL  HW1   4637   2.976   0.437   3.519
 1546SOL  HW2   4638   2.901   0.489   3.640
 1547SOL  OW    4639   2.897   0.439   3.822
 1547SOL  HW1   4640   2.870   0.364   3.769
 1547SOL  HW2   4641   2.868   0.515   3.772
 1548SOL  OW    4642   2.883   0.767   0.117
 1548SOL  HW1   4643   2.910   0.677   0.098
 1548SOL  HW2   4644   2.886   0.773   0.212
 1549SOL  OW    4645   2.905   0.809   0.495
 1549SOL  HW1   4646   2.875   0.848   0.413
 1549SOL  HW2   4647   2.871   0.867   0.563
 1550SOL  OW    4648   2.900   0.754   0.766
 1550SOL  HW1   4649   2.912   0.733   0.674
 1550SOL  HW2   4650   2.808   0.780   0.774
 1551SOL  OW    4651   2.951   0.793   1.047
 1551SOL  HW1   4652   2.938   0.720   0.987
 1551SOL  HW2   4653   3.019   0.764   1.107
 1552SOL  OW    4654   2.893   0.763   1.414
 1552SOL  HW1   4655   2.838   0.729   1.485
 1552SOL  HW2   4656   2.843   0.745   1.335
 1553SOL  OW    4657   2.954   0.738   1.698
 1553SOL  HW1   4658   3.031   0.777   1.657
 1553SOL  HW2   4659   2.883   0.800   1.681
 1554SOL  OW    4660   2.896   0.784   2.033
 1554SOL  HW1   4661   2.892   0.791   2.129
 1554SOL  HW2   4662   2.921   0.871   2.004
 1555SOL  OW    4663   2.919   0.736   2.314
 1555SOL  HW1   4664   2.998   0.786   2.335
 1555SOL  HW2   4665   2.952   0.650   2.287
 1556SOL  OW    4666   2.916   0.794   2.603
 1556SOL  HW1   4667   2.963   0.712   2.591
 1556SOL  HW2   4668   2.979   0.862   2.580
 1557SOL  OW    4669   2.953   0.751   2.896
 1557SOL  HW1   4670   3.010   0.813   2.851
 1557SOL  HW2   4671   3.011   0.703   2.955
 1558SOL  OW    4672   2.908   0.732   3.213
 1558SOL  HW1   4673   2.822   0.776   3.214
 1558SOL  HW2   4674   2.964   0.790   3.162
 1559SOL  OW    4675   2.936   0.741   3.507
 1559SOL  HW1   4676   2.966   0.674   3.446
 1559SOL  HW2   4677   2.993   0.731   3.583
 1560SOL  OW    4678   2.894   0.735   3.876
 1560SOL  HW1   4679   2.891   0.641   3.893
 1560SOL  HW2   4680   2.925   0.743   3.786
 1561SOL  OW    4681   2.959   1.041   0.175
 1561SOL  HW1   4682   2.910   1.042   0.257
 1561SOL  HW2   4683   3.049   1.059   0.199
 1562SOL  OW    4684   2.942   1.117   0.449
 1562SOL  HW1   4685   3.016   1.069   0.486
 1562SOL  HW2   4686   2.911   1.061   0.378
 1563SOL  OW    4687   2.906   1.073   0.798
 1563SOL  HW1   4688   2.938   1.005   0.857
 1563SOL  HW2   4689   2.956   1.061   0.717
 1564SOL  OW    4690   2.941   1.075   1.056
 1564SOL  HW1   4691   2.909   0.985   1.068
 1564SOL  HW2   4692   3.036   1.068   1.070
 1565SOL  OW    4693   2.941   1.105   1.377
 1565SOL  HW1   4694   2.921   1.109   1.470
 1565SOL  HW2   4695   2.999   1.030   1.368
 1566SOL  OW    4696   2.937   1.069   1.691
 1566SOL  HW1   4697   2.869   1.082   1.757
 1566SOL  HW2   4698   2.990   0.998   1.726
 1567SOL  OW    4699   2.925   1.099   2.038
 1567SOL  HW1   4700   2.923   1.050   2.120
 1567SOL  HW2   4701   3.013   1.136   2.034
 1568SOL  OW    4702   2.919   1.064   2.298
 1568SOL  HW1   4703   2.929   0.970   2.309
 1568SOL  HW2   4704   3.008   1.099   2.299
 1569SOL  OW    4705   2.894   1.061   2.582
 1569SOL  HW1   4706   2.864   0.972   2.562
 1569SOL  HW2   4707   2.840   1.088   2.656
 1570SOL  OW    4708   2.917   1.050   2.911
 1570SOL  HW1   4709   2.869   1.131   2.927
 1570SOL  HW2   4710   2.854   0.980   2.928
 1571SOL  OW    4711   2.947   1.057   3.240
 1571SOL  HW1   4712   2.984   0.974   3.269
 1571SOL  HW2   4713   2.905   1.093   3.318
 1572SOL  OW    4714   2.955   1.082   3.514
 1572SOL  HW1   4715   2.909   1.080   3.598
 1572SOL  HW2   4716   2.887   1.067   3.448
 1573SOL  OW    4717   2.911   1.084   3.847
 1573SOL  HW1   4718   2.858   1.016   3.805
 1573SOL  HW2   4719   2.946   1.135   3.774
 1574SOL  OW    4720   2.895   1.380   0.157
 1574SOL  HW1   4721   2.988   1.392   0.140
 1574SOL  HW2   4722   2.867   1.464   0.195
 1575SOL  OW    4723   2.904   1.394   0.427
 1575SOL  HW1   4724   2.995   1.363   0.427
 1575SOL  HW2   4725   2.878   1.392   0.335
 1576SOL  OW    4726   2.910   1.409   0.750
 1576SOL  HW1   4727   2.881   1.355   0.676
 1576SOL  HW2   4728   2.962   1.479   0.710
 1577SOL  OW    4729   2.931   1.377   1.062
 1577SOL  HW1   4730   3.006   1.338   1.107
 1577SOL  HW2   4731   2.969   1.415   0.983
 1578SOL  OW    4732   2.956   1.372   1.364
 1578SOL  HW1   4733   2.912   1.366   1.448
 1578SOL  HW2   4734   2.995   1.460   1.363
 1579SOL  OW    4735   2.956   1.404   1.707
 1579SOL  HW1   4736   2.955   1.490   1.749
 1579SOL  HW2   4737   3.047   1.377   1.710
 1580SOL  OW    4738   2.887   1.355   2.011
 1580SOL  HW1   4739   2.801   1.375   2.047
 1580SOL  HW2   4740   2.934   1.314   2.083
 1581SOL  OW    4741   2.900   1.363   2.330
 1581SOL  HW1   4742   2.820   1.318   2.358
 1581SOL  HW2   4743   2.949   1.296   2.282
 1582SOL  OW    4744   2.906   1.350   2.578
 1582SOL  HW1   4745   2.965   1.280   2.552
 1582SOL  HW2   4746   2.874   1.387   2.496
 1583SOL  OW    4747   2.919   1.394   2.953
 1583SOL  HW1   4748   2.911   1.453   3.028
 1583SOL  HW2   4749   2.942   1.451   2.879
 1584SOL  OW    4750   2.892   1.360   3.233
 1584SOL  HW1   4751   2.861   1.450   3.248
 1584SOL  HW2   4752   2.864   1.339   3.144
 1585SOL  OW    4753   2.912   1.383   3.572
 1585SOL  HW1   4754   2.941   1.293   3.588
 1585SOL  HW2   4755   2.985   1.437   3.603
 1586SOL  OW    4756   2.927   1.378   3.885
 1586SOL  HW1   4757   2.875   1.450   3.849
 1586SOL  HW2   4758   2.924   1.310   3.818
 1587SOL  OW    4759   2.888   1.727   0.154
 1587SOL  HW1   4760   2.811   1.682   0.118
 1587SOL  HW2   4761   2.954   1.720   0.085
 1588SOL  OW    4762   2.923   1.726   0.462
 1588SOL  HW1   4763   2.866   1.655   0.433
 1588SOL  HW2   4764   3.002   1.717   0.408
 1589SOL  OW    4765   2.918   1.674   0.782
 1589SOL  HW1   4766   3.005   1.697   0.749
 1589SOL  HW2   4767   2.929   1.587   0.819
 1590SOL  OW    4768   2.929   1.669   1.094
 1590SOL  HW1   4769   2.923   1.707   1.006
 1590SOL  HW2   4770   3.003   1.609   1.089
 1591SOL  OW    4771   2.935   1.684   1.345
 1591SOL  HW1   4772   2.956   1.662   1.436
 1591SOL  HW2   4773   2.932   1.780   1.344
 1592SOL  OW    4774   2.919   1.653   1.658
 1592SOL  HW1   4775   2.912   1.610   1.743
 1592SOL  HW2   4776   2.881   1.739   1.672
 1593SOL  OW    4777   2.918   1.659   1.982
 1593SOL  HW1   4778   2.856   1.608   1.930
 1593SOL  HW2   4779   2.872   1.675   2.065
 1594SOL  OW    4780   2.936   1.677   2.348
 1594SOL  HW1   4781   3.018   1.692   2.394
 1594SOL  HW2   4782   2.955   1.607   2.285
 1595SOL  OW    4783   2.956   1.699   2.653
 1595SOL  HW1   4784   3.010   1.629   2.616
 1595SOL  HW2   4785   2.889   1.714   2.587
 1596SOL  OW    4786   2.953   1.678   2.943
 1596SOL  HW1   4787   2.881   1.686   2.880
 1596SOL  HW2   4788   2.960   1.584   2.959
 1597SOL  OW    4789   2.894   1.707   3.230
 1597SOL  HW1   4790   2.922   1.741   3.315
 1597SOL  HW2   4791   2.975   1.699   3.180
 1598SOL  OW    4792   2.884   1.674   3.575
 1598SOL  HW1   4793   2.935   1.717   3.644
 1598SOL  HW2   4794   2.864   1.745   3.513
 1599SOL  OW    4795   2.908   1.667   3.821
 1599SOL  HW1   4796   2.897   1.646   3.728
 1599SOL  HW2   4797   3.001   1.688   3.830
 1600SOL  OW    4798   2.921   2.027   0.174
 1600SOL  HW1   4799   2.972   1.954   0.209
 1600SOL  HW2   4800   2.964   2.049   0.091
 1601SOL  OW    4801   2.918   1.977   0.425
 1601SOL  HW1   4802   2.995   1.996   0.479
 1601SOL  HW2   4803   2.872   2.060   0.419
 1602SOL  OW    4804   2.920   2.025   0.788
 1602SOL  HW1   4805   2.891   1.943   0.749
 1602SOL  HW2   4806   2.870   2.032   0.869
 1603SOL  OW    4807   2.916   2.008   1.072
 1603SOL  HW1   4808   2.866   1.941   1.023
 1603SOL  HW2   4809   2.884   2.091   1.038
 1604SOL  OW    4810   2.929   2.001   1.399
 1604SOL  HW1   4811   2.891   1.953   1.472
 1604SOL  HW2   4812   2.855   2.023   1.343
 1605SOL  OW    4813   2.924   2.035   1.687
 1605SOL  HW1   4814   2.936   1.955   1.737
 1605SOL  HW2   4815   3.012   2.062   1.663
 1606SOL  OW    4816   2.884   1.979   2.000
 1606SOL  HW1   4817   2.869   2.071   1.979
 1606SOL  HW2   4818   2.798   1.938   1.991
 1607SOL  OW    4819   2.926   2.004   2.325
 1607SOL  HW1   4820   3.013   2.041   2.310
 1607SOL  HW2   4821   2.918   1.935   2.259
 1608SOL  OW    4822   2.905   2.013   2.632
 1608SOL  HW1   4823   2.880   1.923   2.614
 1608SOL  HW2   4824   2.824   2.054   2.663
 1609SOL  OW    4825   2.916   1.992   2.897
 1609SOL  HW1   4826   2.865   2.068   2.925
 1609SOL  HW2   4827   2.869   1.917   2.933
 1610SOL  OW    4828   2.916   2.023   3.263
 1610SOL  HW1   4829   2.825   1.998   3.280
 1610SOL  HW2   4830   2.957   2.026   3.350
 1611SOL  OW    4831   2.931   1.984   3.553
 1611SOL  HW1   4832   2.999   1.986   3.620
 1611SOL  HW2   4833   2.931   1.894   3.521
 1612SOL  OW    4834   2.942   1.987   3.872
 1612SOL  HW1   4835   3.013   1.934   3.835
 1612SOL  HW2   4836   2.922   1.943   3.955
 1613SOL  OW    4837   2.889   2.269   0.124
 1613SOL  HW1   4838   2.910   2.323   0.048
 1613SOL  HW2   4839   2.919   2.181   0.100
 1614SOL  OW    4840   2.896   2.338   0.456
 1614SOL  HW1   4841   2.851   2.360   0.374
 1614SOL  HW2   4842   2.972   2.287   0.428
 1615SOL  OW    4843   2.905   2.302   0.761
 1615SOL  HW1   4844   2.815   2.328   0.744
 1615SOL  HW2   4845   2.900   2.209   0.781
 1616SOL  OW    4846   2.907   2.279   1.089
 1616SOL  HW1   4847   2.915   2.286   0.994
 1616SOL  HW2   4848   2.985   2.323   1.123
 1617SOL  OW    4849   2.894   2.330   1.361
 1617SOL  HW1   4850   2.821   2.291   1.410
 1617SOL  HW2   4851   2.878   2.304   1.270
 1618SOL  OW    4852   2.942   2.332   1.662
 1618SOL  HW1   4853   3.035   2.328   1.642
 1618SOL  HW2   4854   2.899   2.342   1.577
 1619SOL  OW    4855   2.890   2.344   1.997
 1619SOL  HW1   4856   2.888   2.339   2.093
 1619SOL  HW2   4857   2.907   2.254   1.969
 1620SOL  OW    4858   2.933   2.270   2.290
 1620SOL  HW1   4859   2.860   2.256   2.231
 1620SOL  HW2   4860   2.899   2.326   2.359
 1621SOL  OW    4861   2.924   2.339   2.597
 1621SOL  HW1   4862   2.969   2.258   2.620
 1621SOL  HW2   4863   2.850   2.310   2.543
 1622SOL  OW    4864   2.945   2.321   2.892
 1622SOL  HW1   4865   2.857   2.308   2.858
 1622SOL  HW2   4866   3.000   2.333   2.815
 1623SOL  OW    4867   2.907   2.287   3.226
 1623SOL  HW1   4868   2.989   2.280   3.274
 1623SOL  HW2   4869   2.847   2.227   3.271
 1624SOL  OW    4870   2.934   2.302   3.518
 1624SOL  HW1   4871   2.979   2.349   3.448
 1624SOL  HW2   4872   2.894   2.372   3.570
 1625SOL  OW    4873   2.939   2.314   3.848
 1625SOL  HW1   4874   3.033   2.331   3.841
 1625SOL  HW2   4875   2.920   2.317   3.942
 1626SOL  OW    4876   2.927   2.593   0.168
 1626SOL  HW1   4877   2.915   2.639   0.085
 1626SOL  HW2   4878   2.986   2.650   0.218
 1627SOL  OW    4879   2.914   2.604   0.434
 1627SOL  HW1   4880   2.842   2.642   0.484
 1627SOL  HW2   4881   2.871   2.561   0.359
 1628SOL  OW    4882   2.931   2.624   0.756
 1628SOL  HW1   4883   3.013   2.589   0.721
 1628SOL  HW2   4884   2.864   2.596   0.694
 1629SOL  OW    4885   2.952   2.643   1.046
 1629SOL  HW1   4886   2.999   2.649   0.962
 1629SOL  HW2   4887   2.918   2.554   1.048
 1630SOL  OW    4888   2.939   2.607   1.425
 1630SOL  HW1   4889   2.847   2.635   1.427
 1630SOL  HW2   4890   2.949   2.554   1.503
 1631SOL  OW    4891   2.901   2.598   1.688
 1631SOL  HW1   4892   2.929   2.604   1.596
 1631SOL  HW2   4893   2.819   2.647   1.691
 1632SOL  OW    4894   2.905   2.631   1.998
 1632SOL  HW1   4895   2.949   2.713   1.979
 1632SOL  HW2   4896   2.975   2.570   2.022
 1633SOL  OW    4897   2.901   2.616   2.339
 1633SOL  HW1   4898   2.890   2.614   2.244
 1633SOL  HW2   4899   2.840   2.550   2.371
 1634SOL  OW    4900   2.946   2.615   2.598
 1634SOL  HW1   4901   3.025   2.636   2.547
 1634SOL  HW2   4902   2.891   2.565   2.539
 1635SOL  OW    4903   2.897   2.646   2.940
 1635SOL  HW1   4904   2.901   2.587   3.016
 1635SOL  HW2   4905   2.988   2.652   2.910
 1636SOL  OW    4906   2.929   2.646   3.201
 1636SOL  HW1   4907   2.858   2.610   3.254
 1636SOL  HW2   4908   3.002   2.656   3.261
 1637SOL  OW    4909   2.938   2.593   3.508
 1637SOL  HW1   4910   3.033   2.593   3.501
 1637SOL  HW2   4911   2.915   2.685   3.520
 1638SOL  OW    4912   2.920   2.606   3.881
 1638SOL  HW1   4913   2.877   2.684   3.846
 1638SOL  HW2   4914   2.985   2.641   3.943
 1639SOL  OW    4915   2.909   2.948   0.174
 1639SOL  HW1   4916   2.940   3.039   0.174
 1639SOL  HW2   4917   2.989   2.895   0.170
 1640SOL  OW    4918   2.937   2.957   0.454
 1640SOL  HW1   4919   2.866   2.912   0.501
 1640SOL  HW2   4920   2.924   2.933   0.362
 1641SOL  OW    4921   2.914   2.896   0.751
 1641SOL  HW1   4922   2.968   2.846   0.813
 1641SOL  HW2   4923   2.859   2.830   0.709
 1642SOL  OW    4924   2.953   2.921   1.064
 1642SOL  HW1   4925   3.000   3.001   1.041
 1642SOL  HW2   4926   3.018   2.852   1.053
 1643SOL  OW    4927   2.900   2.922   1.402
 1643SOL  HW1   4928   2.976   2.922   1.343
 1643SOL  HW2   4929   2.866   3.011   1.397
 1644SOL  OW    4930   2.906   2.944   1.703
 1644SOL  HW1   4931   2.852   2.950   1.624
 1644SOL  HW2   4932   2.990   2.981   1.677
 1645SOL  OW    4933   2.946   2.903   2.010
 1645SOL  HW1   4934   2.975   2.812   2.013
 1645SOL  HW2   4935   2.924   2.924   2.101
 1646SOL  OW    4936   2.895   2.912   2.326
 1646SOL  HW1   4937   2.944   2.840   2.285
 1646SOL  HW2   4938   2.895   2.891   2.419
 1647SOL  OW    4939   2.934   2.898   2.644
 1647SOL  HW1   4940   2.843   2.898   2.676
 1647SOL  HW2   4941   2.954   2.991   2.630
 1648SOL  OW    4942   2.887   2.931   2.962
 1648SOL  HW1   4943   2.954   2.924   3.030
 1648SOL  HW2   4944   2.859   2.841   2.947
 1649SOL  OW    4945   2.926   2.947   3.238
 1649SOL  HW1   4946   2.986   2.983   3.303
 1649SOL  HW2   4947   2.982   2.905   3.173
 1650SOL  OW    4948   2.946   2.936   3.554
 1650SOL  HW1   4949   2.873   2.874   3.540
 1650SOL  HW2   4950   2.928   2.974   3.640
 1651SOL  OW    4951   2.901   2.942   3.825
 1651SOL  HW1   4952   2.958   2.909   3.755
 1651SOL  HW2   4953   2.881   2.865   3.878
 1652SOL  OW    4954   2.962   3.209   0.133
 1652SOL  HW1   4955   3.056   3.206   0.119
 1652SOL  HW2   4956   2.949   3.282   0.193
 1653SOL  OW    4957   2.952   3.210   0.450
 1653SOL  HW1   4958   2.997   3.189   0.369
 1653SOL  HW2   4959   2.993   3.292   0.480
 1654SOL  OW    4960   2.940   3.203   0.742
 1654SOL  HW1   4961   2.944   3.110   0.760
 1654SOL  HW2   4962   2.997   3.243   0.808
 1655SOL  OW    4963   2.922   3.210   1.056
 1655SOL  HW1   4964   2.896   3.135   1.109
 1655SOL  HW2   4965   3.017   3.204   1.051
 1656SOL  OW    4966   2.884   3.220   1.370
 1656SOL  HW1   4967   2.967   3.181   1.395
 1656SOL  HW2   4968   2.844   3.247   1.453
 1657SOL  OW    4969   2.886   3.240   1.702
 1657SOL  HW1   4970   2.915   3.328   1.729
 1657SOL  HW2   4971   2.810   3.223   1.758
 1658SOL  OW    4972   2.889   3.216   2.030
 1658SOL  HW1   4973   2.879   3.311   2.042
 1658SOL  HW2   4974   2.932   3.207   1.945
 1659SOL  OW    4975   2.930   3.224   2.305
 1659SOL  HW1   4976   2.958   3.268   2.225
 1659SOL  HW2   4977   2.949   3.286   2.375
 1660SOL  OW    4978   2.900   3.256   2.649
 1660SOL  HW1   4979   2.890   3.334   2.595
 1660SOL  HW2   4980   2.951   3.285   2.724
 1661SOL  OW    4981   2.956   3.209   2.908
 1661SOL  HW1   4982   3.016   3.167   2.846
 1661SOL  HW2   4983   2.891   3.141   2.928
 1662SOL  OW    4984   2.896   3.215   3.217
 1662SOL  HW1   4985   2.802   3.222   3.200
 1662SOL  HW2   4986   2.934   3.189   3.134
 1663SOL  OW    4987   2.934   3.206   3.572
 1663SOL  HW1   4988   2.983   3.124   3.567
 1663SOL  HW2   4989   2.993   3.267   3.616
 1664SOL  OW    4990   2.891   3.191   3.875
 1664SOL  HW1   4991   2.930   3.205   3.961
 1664SOL  HW2   4992   2.856   3.277   3.850
 1665SOL  OW    4993   2.939   3.527   0.161
 1665SOL  HW1   4994   2.917   3.614   0.195
 1665SOL  HW2   4995   3.015   3.499   0.213
 1666SOL  OW    4996   2.901   3.512   0.459
 1666SOL  HW1   4997   2.835   3.443   0.467
 1666SOL  HW2   4998   2.871   3.565   0.386
 1667SOL  OW    4999   2.911   3.548   0.747
 1667SOL  HW1   5000   2.980   3.536   0.812
 1667SOL  HW2   5001   2.954   3.530   0.663
 1668SOL  OW    5002   2.936   3.560   1.050
 1668SOL  HW1   5003   2.858   3.564   1.106
 1668SOL  HW2   5004   2.950   3.466   1.035
 1669SOL  OW    5005   2.887   3.534   1.407
 1669SOL  HW1   5006   2.957   3.469   1.404
 1669SOL  HW2   5007   2.929   3.616   1.382
 1670SOL  OW    5008   2.935   3.555   1.685
 1670SOL  HW1   5009   2.942   3.508   1.601
 1670SOL  HW2   5010   2.863   3.616   1.672
 1671SOL  OW    5011   2.902   3.541   1.976
 1671SOL  HW1   5012   2.990   3.560   1.946
 1671SOL  HW2   5013   2.887   3.450   1.951
 1672SOL  OW    5014   2.941   3.514   2.291
 1672SOL  HW1   5015   2.913   3.473   2.209
 1672SOL  HW2   5016   3.035   3.530   2.279
 1673SOL  OW    5017   2.924   3.537   2.623
 1673SOL  HW1   5018   2.886   3.612   2.577
 1673SOL  HW2   5019   3.003   3.516   2.575
 1674SOL  OW    5020   2.918   3.572   2.950
 1674SOL  HW1   5021   2.952   3.528   3.028
 1674SOL  HW2   5022   2.940   3.513   2.878
 1675SOL  OW    5023   2.953   3.549   3.242
 1675SOL  HW1   5024   2.963   3.503   3.325
 1675SOL  HW2   5025   2.863   3.580   3.242
 1676SOL  OW    5026   2.932   3.533   3.524
 1676SOL  HW1   5027   3.021   3.567   3.535
 1676SOL  HW2   5028   2.914   3.542   3.431
 1677SOL  OW    5029   2.930   3.501   3.807
 1677SOL  HW1   5030   2.940   3.457   3.892
 1677SOL  HW2   5031   3.017   3.537   3.789
 1678SOL  OW    5032   2.951   3.810   0.156
 1678SOL  HW1   5033   2.920   3.889   0.112
 1678SOL  HW2   5034   2.985   3.840   0.240
 1679SOL  OW    5035   2.932   3.822   0.493
 1679SOL  HW1   5036   2.948   3.906   0.451
 1679SOL  HW2   5037   3.007   3.768   0.467
 1680SOL  OW    5038   2.898   3.877   0.790
 1680SOL  HW1   5039   2.983   3.880   0.746
 1680SOL  HW2   5040   2.913   3.920   0.874
 1681SOL  OW    5041   2.902   3.818   1.062
 1681SOL  HW1   5042   2.848   3.895   1.080
 1681SOL  HW2   5043   2.948   3.840   0.981
 1682SOL  OW    5044   2.915   3.826   1.425
 1682SOL  HW1   5045   2.909   3.887   1.351
 1682SOL  HW2   5046   2.931   3.882   1.501
 1683SOL  OW    5047   2.901   3.873   1.665
 1683SOL  HW1   5048   2.840   3.812   1.706
 1683SOL  HW2   5049   2.899   3.950   1.721
 1684SOL  OW    5050   2.961   3.824   1.994
 1684SOL  HW1   5051   2.904   3.896   1.967
 1684SOL  HW2   5052   2.958   3.761   1.922
 1685SOL  OW    5053   2.928   3.816   2.333
 1685SOL  HW1   5054   2.875   3.831   2.411
 1685SOL  HW2   5055   2.908   3.890   2.276
 1686SOL  OW    5056   2.905   3.850   2.619
 1686SOL  HW1   5057   2.902   3.935   2.663
 1686SOL  HW2   5058   2.852   3.862   2.541
 1687SOL  OW    5059   2.931   3.811   2.897
 1687SOL  HW1   5060   2.845   3.847   2.875
 1687SOL  HW2   5061   2.917   3.716   2.900
 1688SOL  OW    5062   2.896   3.830   3.202
 1688SOL  HW1   5063   2.861   3.869   3.283
 1688SOL  HW2   5064   2.886   3.899   3.137
 1689SOL  OW    5065   2.957   3.847   3.548
 1689SOL  HW1   5066   2.971   3.900   3.470
 1689SOL  HW2   5067   2.878   3.884   3.588
 1690SOL  OW    5068   2.912   3.828   3.846
 1690SOL  HW1   5069   2.984   3.786   3.893
 1690SOL  HW2   5070   2.854   3.860   3.916
 1691SOL  OW    5071   3.214   0.141   0.150
 1691SOL  HW1   5072   3.301   0.176   0.172
 1691SOL  HW2   5073   3.181   0.200   0.082
 1692SOL  OW    5074   3.231   0.193   0.439
 1692SOL  HW1   5075   3.158   0.229   0.389
 1692SOL  HW2   5076   3.195   0.176   0.526
 1693SOL  OW    5077   3.230   0.126   0.757
 1693SOL  HW1   5078   3.168   0.109   0.686
 1693SOL  HW2   5079   3.217   0.053   0.818
 1694SOL  OW    5080   3.248   0.128   1.083
 1694SOL  HW1   5081   3.337   0.150   1.111
 1694SOL  HW2   5082   3.200   0.210   1.088
 1695SOL  OW    5083   3.224   0.118   1.419
 1695SOL  HW1   5084   3.146   0.088   1.372
 1695SOL  HW2   5085   3.285   0.145   1.351
 1696SOL  OW    5086   3.224   0.177   1.686
 1696SOL  HW1   5087   3.274   0.113   1.736
 1696SOL  HW2   5088   3.225   0.256   1.739
 1697SOL  OW    5089   3.266   0.137   1.993
 1697SOL  HW1   5090   3.360   0.123   2.004
 1697SOL  HW2   5091   3.258   0.226   1.960
 1698SOL  OW    5092   3.251   0.141   2.297
 1698SOL  HW1   5093   3.221   0.056   2.327
 1698SOL  HW2   5094   3.249   0.197   2.375
 1699SOL  OW    5095   3.270   0.158   2.631
 1699SOL  HW1   5096   3.188   0.116   2.655
 1699SOL  HW2   5097   3.274   0.150   2.535
 1700SOL  OW    5098   3.242   0.180   2.952
 1700SOL  HW1   5099   3.205   0.195   3.039
 1700SOL  HW2   5100   3.216   0.257   2.902
 1701SOL  OW    5101   3.236   0.137   3.193
 1701SOL  HW1   5102   3.144   0.146   3.218
 1701SOL  HW2   5103   3.234   0.131   3.097
 1702SOL  OW    5104   3.240   0.180   3.535
 1702SOL  HW1   5105   3.331   0.205   3.521
 1702SOL  HW2   5106   3.228   0.184   3.629
 1703SOL  OW    5107   3.204   0.137   3.847
 1703SOL  HW1   5108   3.158   0.219   3.831
 1703SOL  HW2   5109   3.232   0.143   3.938
 1704SOL  OW    5110   3.258   0.435   0.163
 1704SOL  HW1   5111   3.247   0.454   0.256
 1704SOL  HW2   5112   3.331   0.491   0.136
 1705SOL  OW    5113   3.251   0.496   0.431
 1705SOL  HW1   5114   3.318   0.561   0.408
 1705SOL  HW2   5115   3.183   0.507   0.364
 1706SOL  OW    5116   3.265   0.470   0.791
 1706SOL  HW1   5117   3.332   0.525   0.751
 1706SOL  HW2   5118   3.190   0.477   0.732
 1707SOL  OW    5119   3.195   0.462   1.087
 1707SOL  HW1   5120   3.112   0.434   1.125
 1707SOL  HW2   5121   3.185   0.557   1.075
 1708SOL  OW    5122   3.215   0.456   1.389
 1708SOL  HW1   5123   3.271   0.449   1.311
 1708SOL  HW2   5124   3.223   0.371   1.432
 1709SOL  OW    5125   3.235   0.425   1.687
 1709SOL  HW1   5126   3.206   0.418   1.596
 1709SOL  HW2   5127   3.185   0.358   1.734
 1710SOL  OW    5128   3.208   0.495   2.038
 1710SOL  HW1   5129   3.165   0.443   2.106
 1710SOL  HW2   5130   3.237   0.574   2.084
 1711SOL  OW    5131   3.215   0.436   2.285
 1711SOL  HW1   5132   3.227   0.486   2.366
 1711SOL  HW2   5133   3.168   0.495   2.227
 1712SOL  OW    5134   3.229   0.491   2.615
 1712SOL  HW1   5135   3.173   0.427   2.573
 1712SOL  HW2   5136   3.300   0.506   2.553
 1713SOL  OW    5137   3.195   0.425   2.901
 1713SOL  HW1   5138   3.159   0.404   2.988
 1713SOL  HW2   5139   3.131   0.483   2.862
 1714SOL  OW    5140   3.258   0.471   3.236
 1714SOL  HW1   5141   3.264   0.381   3.205
 1714SOL  HW2   5142   3.164   0.490   3.238
 1715SOL  OW    5143   3.216   0.496   3.525
 1715SOL  HW1   5144   3.311   0.486   3.534
 1715SOL  HW2   5145   3.180   0.441   3.595
 1716SOL  OW    5146   3.258   0.493   3.845
 1716SOL  HW1   5147   3.227   0.532   3.927
 1716SOL  HW2   5148   3.206   0.413   3.835
 1717SOL  OW    5149   3.262   0.751   0.167
 1717SOL  HW1   5150   3.227   0.829   0.210
 1717SOL  HW2   5151   3.185   0.700   0.142
 1718SOL  OW    5152   3.198   0.767   0.439
 1718SOL  HW1   5153   3.130   0.700   0.450
 1718SOL  HW2   5154   3.261   0.728   0.379
 1719SOL  OW    5155   3.196   0.730   0.755
 1719SOL  HW1   5156   3.186   0.640   0.787
 1719SOL  HW2   5157   3.145   0.732   0.674
 1720SOL  OW    5158   3.238   0.766   1.061
 1720SOL  HW1   5159   3.295   0.840   1.042
 1720SOL  HW2   5160   3.274   0.728   1.141
 1721SOL  OW    5161   3.270   0.804   1.355
 1721SOL  HW1   5162   3.261   0.710   1.339
 1721SOL  HW2   5163   3.354   0.813   1.399
 1722SOL  OW    5164   3.224   0.781   1.711
 1722SOL  HW1   5165   3.134   0.747   1.713
 1722SOL  HW2   5166   3.217   0.869   1.749
 1723SOL  OW    5167   3.220   0.789   1.970
 1723SOL  HW1   5168   3.290   0.757   1.913
 1723SOL  HW2   5169   3.239   0.882   1.980
 1724SOL  OW    5170   3.217   0.787   2.318
 1724SOL  HW1   5171   3.181   0.870   2.347
 1724SOL  HW2   5172   3.304   0.808   2.283
 1725SOL  OW    5173   3.258   0.733   2.589
 1725SOL  HW1   5174   3.300   0.787   2.656
 1725SOL  HW2   5175   3.262   0.644   2.625
 1726SOL  OW    5176   3.195   0.745   2.883
 1726SOL  HW1   5177   3.105   0.744   2.918
 1726SOL  HW2   5178   3.230   0.830   2.908
 1727SOL  OW    5179   3.231   0.771   3.243
 1727SOL  HW1   5180   3.273   0.687   3.226
 1727SOL  HW2   5181   3.301   0.836   3.232
 1728SOL  OW    5182   3.222   0.729   3.552
 1728SOL  HW1   5183   3.244   0.757   3.641
 1728SOL  HW2   5184   3.293   0.763   3.498
 1729SOL  OW    5185   3.195   0.799   3.808
 1729SOL  HW1   5186   3.164   0.726   3.755
 1729SOL  HW2   5187   3.228   0.862   3.745
 1730SOL  OW    5188   3.233   1.109   0.160
 1730SOL  HW1   5189   3.192   1.169   0.221
 1730SOL  HW2   5190   3.314   1.082   0.203
 1731SOL  OW    5191   3.239   1.091   0.431
 1731SOL  HW1   5192   3.250   1.164   0.369
 1731SOL  HW2   5193   3.207   1.133   0.511
 1732SOL  OW    5194   3.245   1.107   0.807
 1732SOL  HW1   5195   3.312   1.118   0.740
 1732SOL  HW2   5196   3.162   1.110   0.760
 1733SOL  OW    5197   3.226   1.064   1.097
 1733SOL  HW1   5198   3.223   1.095   1.188
 1733SOL  HW2   5199   3.317   1.077   1.070
 1734SOL  OW    5200   3.234   1.058   1.358
 1734SOL  HW1   5201   3.173   1.115   1.313
 1734SOL  HW2   5202   3.185   1.024   1.433
 1735SOL  OW    5203   3.204   1.074   1.666
 1735SOL  HW1   5204   3.274   1.032   1.615
 1735SOL  HW2   5205   3.234   1.066   1.757
 1736SOL  OW    5206   3.192   1.041   2.034
 1736SOL  HW1   5207   3.160   1.120   2.078
 1736SOL  HW2   5208   3.232   1.073   1.954
 1737SOL  OW    5209   3.197   1.043   2.304
 1737SOL  HW1   5210   3.240   0.988   2.369
 1737SOL  HW2   5211   3.250   1.122   2.300
 1738SOL  OW    5212   3.210   1.114   2.648
 1738SOL  HW1   5213   3.141   1.172   2.617
 1738SOL  HW2   5214   3.182   1.086   2.735
 1739SOL  OW    5215   3.223   1.073   2.913
 1739SOL  HW1   5216   3.206   1.167   2.918
 1739SOL  HW2   5217   3.139   1.032   2.935
 1740SOL  OW    5218   3.194   1.060   3.201
 1740SOL  HW1   5219   3.269   1.113   3.228
 1740SOL  HW2   5220   3.199   0.980   3.253
 1741SOL  OW    5221   3.199   1.082   3.506
 1741SOL  HW1   5222   3.131   1.127   3.557
 1741SOL  HW2   5223   3.279   1.094   3.558
 1742SOL  OW    5224   3.199   1.075   3.842
 1742SOL  HW1   5225   3.253   1.150   3.815
 1742SOL  HW2   5226   3.155   1.105   3.921
 1743SOL  OW    5227   3.202   1.345   0.129
 1743SOL  HW1   5228   3.240   1.269   0.085
 1743SOL  HW2   5229   3.213   1.417   0.067
 1744SOL  OW    5230   3.210   1.409   0.495
 1744SOL  HW1   5231   3.185   1.386   0.405
 1744SOL  HW2   5232   3.127   1.406   0.544
 1745SOL  OW    5233   3.223   1.377   0.786
 1745SOL  HW1   5234   3.212   1.405   0.877
 1745SOL  HW2   5235   3.145   1.410   0.741
 1746SOL  OW    5236   3.241   1.359   1.046
 1746SOL  HW1   5237   3.257   1.451   1.067
 1746SOL  HW2   5238   3.242   1.356   0.950
 1747SOL  OW    5239   3.226   1.390   1.356
 1747SOL  HW1   5240   3.292   1.321   1.361
 1747SOL  HW2   5241   3.202   1.393   1.263
 1748SOL  OW    5242   3.214   1.369   1.673
 1748SOL  HW1   5243   3.189   1.432   1.741
 1748SOL  HW2   5244   3.183   1.408   1.592
 1749SOL  OW    5245   3.228   1.397   2.001
 1749SOL  HW1   5246   3.225   1.307   1.969
 1749SOL  HW2   5247   3.141   1.412   2.039
 1750SOL  OW    5248   3.207   1.353   2.333
 1750SOL  HW1   5249   3.182   1.289   2.267
 1750SOL  HW2   5250   3.210   1.436   2.286
 1751SOL  OW    5251   3.229   1.350   2.596
 1751SOL  HW1   5252   3.135   1.369   2.596
 1751SOL  HW2   5253   3.235   1.259   2.628
 1752SOL  OW    5254   3.255   1.405   2.953
 1752SOL  HW1   5255   3.263   1.461   2.876
 1752SOL  HW2   5256   3.282   1.461   3.026
 1753SOL  OW    5257   3.239   1.378   3.225
 1753SOL  HW1   5258   3.163   1.435   3.208
 1753SOL  HW2   5259   3.307   1.411   3.166
 1754SOL  OW    5260   3.206   1.397   3.545
 1754SOL  HW1   5261   3.226   1.305   3.565
 1754SOL  HW2   5262   3.259   1.417   3.468
 1755SOL  OW    5263   3.203   1.415   3.836
 1755SOL  HW1   5264   3.124   1.369   3.864
 1755SOL  HW2   5265   3.219   1.384   3.747
 1756SOL  OW    5266   3.195   1.679   0.183
 1756SOL  HW1   5267   3.247   1.613   0.138
 1756SOL  HW2   5268   3.257   1.725   0.239
 1757SOL  OW    5269   3.264   1.692   0.498
 1757SOL  HW1   5270   3.185   1.703   0.550
 1757SOL  HW2   5271   3.334   1.729   0.552
 1758SOL  OW    5272   3.261   1.718   0.798
 1758SOL  HW1   5273   3.224   1.755   0.878
 1758SOL  HW2   5274   3.218   1.633   0.789
 1759SOL  OW    5275   3.221   1.713   1.083
 1759SOL  HW1   5276   3.191   1.735   0.995
 1759SOL  HW2   5277   3.198   1.789   1.136
 1760SOL  OW    5278   3.248   1.667   1.403
 1760SOL  HW1   5279   3.335   1.704   1.385
 1760SOL  HW2   5280   3.247   1.584   1.355
 1761SOL  OW    5281   3.267   1.677   1.731
 1761SOL  HW1   5282   3.175   1.670   1.755
 1761SOL  HW2   5283   3.291   1.767   1.752
 1762SOL  OW    5284   3.221   1.668   1.969
 1762SOL  HW1   5285   3.199   1.706   1.884
 1762SOL  HW2   5286   3.236   1.744   2.025
 1763SOL  OW    5287   3.254   1.697   2.292
 1763SOL  HW1   5288   3.195   1.704   2.217
 1763SOL  HW2   5289   3.324   1.640   2.262
 1764SOL  OW    5290   3.239   1.679   2.611
 1764SOL  HW1   5291   3.254   1.773   2.619
 1764SOL  HW2   5292   3.177   1.658   2.681
 1765SOL  OW    5293   3.260   1.706   2.944
 1765SOL  HW1   5294   3.180   1.657   2.964
 1765SOL  HW2   5295   3.306   1.651   2.880
 1766SOL  OW    5296   3.237   1.732   3.210
 1766SOL  HW1   5297   3.262   1.749   3.119
 1766SOL  HW2   5298   3.203   1.642   3.209
 1767SOL  OW    5299   3.212   1.660   3.543
 1767SOL  HW1   5300   3.259   1.603   3.603
 1767SOL  HW2   5301   3.173   1.600   3.479
 1768SOL  OW    5302   3.240   1.710   3.833
 1768SOL  HW1   5303   3.158   1.698   3.880
 1768SOL  HW2   5304   3.267   1.799   3.855
 1769SOL  OW    5305   3.192   2.011   0.194
 1769SOL  HW1   5306   3.258   1.967   0.247
 1769SOL  HW2   5307   3.220   1.997   0.104
 1770SOL  OW    5308   3.214   1.975   0.444
 1770SOL  HW1   5309   3.159   2.004   0.516
 1770SOL  HW2   5310   3.304   1.983   0.478
 1771SOL  OW    5311   3.225   1.980   0.757
 1771SOL  HW1   5312   3.268   2.031   0.826
 1771SOL  HW2   5313   3.236   2.033   0.678
 1772SOL  OW    5314   3.242   1.988   1.069
 1772SOL  HW1   5315   3.325   1.946   1.048
 1772SOL  HW2   5316   3.262   2.048   1.140
 1773SOL  OW    5317   3.194   2.033   1.377
 1773SOL  HW1   5318   3.126   2.069   1.320
 1773SOL  HW2   5319   3.155   1.953   1.412
 1774SOL  OW    5320   3.217   1.967   1.703
 1774SOL  HW1   5321   3.227   1.873   1.718
 1774SOL  HW2   5322   3.155   1.995   1.770
 1775SOL  OW    5323   3.260   1.963   1.972
 1775SOL  HW1   5324   3.337   2.003   2.012
 1775SOL  HW2   5325   3.211   1.927   2.045
 1776SOL  OW    5326   3.202   2.008   2.341
 1776SOL  HW1   5327   3.168   1.920   2.354
 1776SOL  HW2   5328   3.131   2.066   2.369
 1777SOL  OW    5329   3.226   1.988   2.637
 1777SOL  HW1   5330   3.279   2.059   2.602
 1777SOL  HW2   5331   3.209   2.012   2.728
 1778SOL  OW    5332   3.250   1.980   2.896
 1778SOL  HW1   5333   3.232   1.954   2.986
 1778SOL  HW2   5334   3.168   2.017   2.864
 1779SOL  OW    5335   3.219   2.022   3.246
 1779SOL  HW1   5336   3.253   2.045   3.160
 1779SOL  HW2   5337   3.279   2.066   3.308
 1780SOL  OW    5338   3.244   2.026   3.521
 1780SOL  HW1   5339   3.150   2.028   3.505
 1780SOL  HW2   5340   3.253   2.043   3.614
 1781SOL  OW    5341   3.218   1.963   3.876
 1781SOL  HW1   5342   3.259   1.991   3.794
 1781SOL  HW2   5343   3.131   2.002   3.873
 1782SOL  OW    5344   3.237   2.292   0.119
 1782SOL  HW1   5345   3.238   2.200   0.092
 1782SOL  HW2   5346   3.164   2.298   0.180
 1783SOL  OW    5347   3.249   2.328   0.475
 1783SOL  HW1   5348   3.236   2.292   0.387
 1783SOL  HW2   5349   3.261   2.250   0.530
 1784SOL  OW    5350   3.207   2.341   0.789
 1784SOL  HW1   5351   3.186   2.403   0.859
 1784SOL  HW2   5352   3.199   2.392   0.709
 1785SOL  OW    5353   3.243   2.320   1.109
 1785SOL  HW1   5354   3.252   2.268   1.029
 1785SOL  HW2   5355   3.325   2.369   1.116
 1786SOL  OW    5356   3.265   2.315   1.378
 1786SOL  HW1   5357   3.262   2.222   1.359
 1786SOL  HW2   5358   3.358   2.336   1.381
 1787SOL  OW    5359   3.220   2.333   1.704
 1787SOL  HW1   5360   3.294   2.327   1.764
 1787SOL  HW2   5361   3.177   2.416   1.727
 1788SOL  OW    5362   3.197   2.279   2.032
 1788SOL  HW1   5363   3.270   2.238   2.079
 1788SOL  HW2   5364   3.135   2.302   2.101
 1789SOL  OW    5365   3.262   2.344   2.302
 1789SOL  HW1   5366   3.215   2.312   2.379
 1789SOL  HW2   5367   3.224   2.430   2.285
 1790SOL  OW    5368   3.253   2.334   2.601
 1790SOL  HW1   5369   3.196   2.404   2.571
 1790SOL  HW2   5370   3.217   2.254   2.562
 1791SOL  OW    5371   3.202   2.347   2.885
 1791SOL  HW1   5372   3.214   2.344   2.980
 1791SOL  HW2   5373   3.281   2.307   2.850
 1792SOL  OW    5374   3.239   2.320   3.245
 1792SOL  HW1   5375   3.217   2.305   3.153
 1792SOL  HW2   5376   3.333   2.336   3.246
 1793SOL  OW    5377   3.211   2.325   3.516
 1793SOL  HW1   5378   3.276   2.306   3.584
 1793SOL  HW2   5379   3.259   2.379   3.452
 1794SOL  OW    5380   3.257   2.285   3.862
 1794SOL  HW1   5381   3.234   2.210   3.807
 1794SOL  HW2   5382   3.183   2.345   3.853
 1795SOL  OW    5383   3.253   2.591   0.133
 1795SOL  HW1   5384   3.338   2.636   0.133
 1795SOL  HW2   5385   3.234   2.576   0.040
 1796SOL  OW    5386   3.253   2.582   0.437
 1796SOL  HW1   5387   3.281   2.526   0.509
 1796SOL  HW2   5388   3.277   2.534   0.358
 1797SOL  OW    5389   3.227   2.650   0.774
 1797SOL  HW1   5390   3.196   2.602   0.851
 1797SOL  HW2   5391   3.181   2.609   0.701
 1798SOL  OW    5392   3.222   2.654   1.074
 1798SOL  HW1   5393   3.217   2.747   1.093
 1798SOL  HW2   5394   3.255   2.649   0.984
 1799SOL  OW    5395   3.225   2.608   1.370
 1799SOL  HW1   5396   3.303   2.664   1.367
 1799SOL  HW2   5397   3.217   2.575   1.280
 1800SOL  OW    5398   3.217   2.630   1.656
 1800SOL  HW1   5399   3.253   2.543   1.641
 1800SOL  HW2   5400   3.139   2.616   1.709
 1801SOL  OW    5401   3.245   2.591   1.991
 1801SOL  HW1   5402   3.247   2.542   2.073
 1801SOL  HW2   5403   3.325   2.644   1.992
 1802SOL  OW    5404   3.202   2.620   2.326
 1802SOL  HW1   5405   3.269   2.657   2.384
 1802SOL  HW2   5406   3.209   2.525   2.340
 1803SOL  OW    5407   3.219   2.588   2.594
 1803SOL  HW1   5408   3.309   2.621   2.592
 1803SOL  HW2   5409   3.180   2.630   2.670
 1804SOL  OW    5410   3.256   2.597   2.945
 1804SOL  HW1   5411   3.182   2.655   2.961
 1804SOL  HW2   5412   3.318   2.650   2.895
 1805SOL  OW    5413   3.217   2.590   3.249
 1805SOL  HW1   5414   3.209   2.497   3.268
 1805SOL  HW2   5415   3.220   2.595   3.153
 1806SOL  OW    5416   3.228   2.578   3.575
 1806SOL  HW1   5417   3.324   2.576   3.579
 1806SOL  HW2   5418   3.200   2.574   3.667
 1807SOL  OW    5419   3.203   2.604   3.837
 1807SOL  HW1   5420   3.134   2.624   3.900
 1807SOL  HW2   5421   3.284   2.630   3.880
 1808SOL  OW    5422   3.230   2.946   0.114
 1808SOL  HW1   5423   3.141   2.927   0.086
 1808SOL  HW2   5424   3.285   2.921   0.040
 1809SOL  OW    5425   3.265   2.935   0.498
 1809SOL  HW1   5426   3.341   2.916   0.554
 1809SOL  HW2   5427   3.192   2.946   0.559
 1810SOL  OW    5428   3.256   2.957   0.777
 1810SOL  HW1   5429   3.221   3.042   0.806
 1810SOL  HW2   5430   3.242   2.956   0.683
 1811SOL  OW    5431   3.219   2.919   1.090
 1811SOL  HW1   5432   3.166   2.997   1.078
 1811SOL  HW2   5433   3.307   2.944   1.059
 1812SOL  OW    5434   3.225   2.942   1.352
 1812SOL  HW1   5435   3.135   2.927   1.324
 1812SOL  HW2   5436   3.220   3.020   1.407
 1813SOL  OW    5437   3.257   2.899   1.728
 1813SOL  HW1   5438   3.340   2.942   1.704
 1813SOL  HW2   5439   3.191   2.967   1.715
 1814SOL  OW    5440   3.203   2.893   2.025
 1814SOL  HW1   5441   3.277   2.877   1.967
 1814SOL  HW2   5442   3.236   2.872   2.112
 1815SOL  OW    5443   3.256   2.942   2.345
 1815SOL  HW1   5444   3.314   2.965   2.271
 1815SOL  HW2   5445   3.289   2.858   2.375
 1816SOL  OW    5446   3.212   2.949   2.604
 1816SOL  HW1   5447   3.223   3.013   2.533
 1816SOL  HW2   5448   3.197   3.002   2.682
 1817SOL  OW    5449   3.234   2.919   2.884
 1817SOL  HW1   5450   3.226   2.879   2.797
 1817SOL  HW2   5451   3.213   3.011   2.869
 1818SOL  OW    5452   3.237   2.943   3.205
 1818SOL  HW1   5453   3.251   2.853   3.176
 1818SOL  HW2   5454   3.198   2.986   3.129
 1819SOL  OW    5455   3.265   2.926   3.513
 1819SOL  HW1   5456   3.237   2.993   3.575
 1819SOL  HW2   5457   3.184   2.892   3.475
 1820SOL  OW    5458   3.242   2.898   3.811
 1820SOL  HW1   5459   3.303   2.970   3.833
 1820SOL  HW2   5460   3.156   2.931   3.837
 1821SOL  OW    5461   3.246   3.200   0.122
 1821SOL  HW1   5462   3.245   3.109   0.090
 1821SOL  HW2   5463   3.298   3.247   0.058
 1822SOL  OW    5464   3.250   3.195   0.486
 1822SOL  HW1   5465   3.184   3.172   0.552
 1822SOL  HW2   5466   3.262   3.116   0.435
 1823SOL  OW    5467   3.254   3.202   0.771
 1823SOL  HW1   5468   3.161   3.196   0.753
 1823SOL  HW2   5469   3.286   3.112   0.762
 1824SOL  OW    5470   3.198   3.241   1.042
 1824SOL  HW1   5471   3.239   3.162   1.006
 1824SOL  HW2   5472   3.227   3.244   1.133
 1825SOL  OW    5473   3.266   3.207   1.399
 1825SOL  HW1   5474   3.184   3.256   1.406
 1825SOL  HW2   5475   3.243   3.128   1.351
 1826SOL  OW    5476   3.201   3.208   1.688
 1826SOL  HW1   5477   3.220   3.271   1.757
 1826SOL  HW2   5478   3.220   3.123   1.728
 1827SOL  OW    5479   3.237   3.271   1.962
 1827SOL  HW1   5480   3.190   3.254   2.044
 1827SOL  HW2   5481   3.197   3.351   1.928
 1828SOL  OW    5482   3.191   3.219   2.297
 1828SOL  HW1   5483   3.238   3.165   2.233
 1828SOL  HW2   5484   3.180   3.304   2.254
 1829SOL  OW    5485   3.261   3.264   2.646
 1829SOL  HW1   5486   3.335   3.204   2.633
 1829SOL  HW2   5487   3.184   3.208   2.642
 1830SOL  OW    5488   3.202   3.224   2.943
 1830SOL  HW1   5489   3.280   3.234   2.887
 1830SOL  HW2   5490   3.206   3.133   2.973
 1831SOL  OW    5491   3.216   3.244   3.210
 1831SOL  HW1   5492   3.171   3.245   3.125
 1831SOL  HW2   5493   3.184   3.164   3.253
 1832SOL  OW    5494   3.217   3.260   3.519
 1832SOL  HW1   5495   3.125   3.234   3.504
 1832SOL  HW2   5496   3.243   3.210   3.596
 1833SOL  OW    5497   3.268   3.215   3.808
 1833SOL  HW1   5498   3.225   3.176   3.732
 1833SOL  HW2   5499   3.360   3.220   3.784
 1834SOL  OW    5500   3.211   3.512   0.154
 1834SOL  HW1   5501   3.231   3.600   0.186
 1834SOL  HW2   5502   3.191   3.524   0.062
 1835SOL  OW    5503   3.200   3.549   0.492
 1835SOL  HW1   5504   3.282   3.558   0.539
 1835SOL  HW2   5505   3.191   3.630   0.443
 1836SOL  OW    5506   3.220   3.512   0.761
 1836SOL  HW1   5507   3.178   3.540   0.680
 1836SOL  HW2   5508   3.311   3.541   0.752
 1837SOL  OW    5509   3.254   3.546   1.045
 1837SOL  HW1   5510   3.264   3.639   1.028
 1837SOL  HW2   5511   3.191   3.516   0.979
 1838SOL  OW    5512   3.234   3.536   1.371
 1838SOL  HW1   5513   3.318   3.565   1.336
 1838SOL  HW2   5514   3.207   3.607   1.429
 1839SOL  OW    5515   3.200   3.577   1.666
 1839SOL  HW1   5516   3.134   3.551   1.732
 1839SOL  HW2   5517   3.180   3.669   1.648
 1840SOL  OW    5518   3.206   3.510   2.006
 1840SOL  HW1   5519   3.264   3.454   1.955
 1840SOL  HW2   5520   3.177   3.577   1.944
 1841SOL  OW    5521   3.226   3.518   2.302
 1841SOL  HW1   5522   3.201   3.554   2.388
 1841SOL  HW2   5523   3.296   3.577   2.272
 1842SOL  OW    5524   3.245   3.521   2.649
 1842SOL  HW1   5525   3.228   3.612   2.673
 1842SOL  HW2   5526   3.182   3.503   2.579
 1843SOL  OW    5527   3.215   3.514   2.959
 1843SOL  HW1   5528   3.140   3.571   2.942
 1843SOL  HW2   5529   3.231   3.469   2.877
 1844SOL  OW    5530   3.256   3.526   3.258
 1844SOL  HW1   5531   3.251   3.558   3.348
 1844SOL  HW2   5532   3.327   3.576   3.219
 1845SOL  OW    5533   3.232   3.526   3.566
 1845SOL  HW1   5534   3.238   3.446   3.617
 1845SOL  HW2   5535   3.223   3.596   3.630
 1846SOL  OW    5536   3.251   3.522   3.855
 1846SOL  HW1   5537   3.272   3.598   3.910
 1846SOL  HW2   5538   3.336   3.481   3.838
 1847SOL  OW    5539   3.220   3.806   0.191
 1847SOL  HW1   5540   3.203   3.743   0.260
 1847SOL  HW2   5541   3.153   3.789   0.125
 1848SOL  OW    5542   3.235   3.854   0.470
 1848SOL  HW1   5543   3.281   3.937   0.461
 1848SOL  HW2   5544   3.271   3.815   0.549
 1849SOL  OW    5545   3.235   3.829   0.807
 1849SOL  HW1   5546   3.228   3.884   0.729
 1849SOL  HW2   5547   3.228   3.890   0.880
 1850SOL  OW    5548   3.241   3.860   1.073
 1850SOL  HW1   5549   3.194   3.899   1.147
 1850SOL  HW2   5550   3.199   3.774   1.062
 1851SOL  OW    5551   3.214   3.811   1.373
 1851SOL  HW1   5552   3.189   3.775   1.458
 1851SOL  HW2   5553   3.175   3.899   1.371
 1852SOL  OW    5554   3.205   3.859   1.723
 1852SOL  HW1   5555   3.294   3.866   1.690
 1852SOL  HW2   5556   3.150   3.893   1.652
 1853SOL  OW    5557   3.215   3.833   2.014
 1853SOL  HW1   5558   3.170   3.900   1.962
 1853SOL  HW2   5559   3.167   3.752   1.994
 1854SOL  OW    5560   3.203   3.881   2.297
 1854SOL  HW1   5561   3.255   3.800   2.302
 1854SOL  HW2   5562   3.167   3.892   2.385
 1855SOL  OW    5563   3.199   3.820   2.650
 1855SOL  HW1   5564   3.134   3.845   2.716
 1855SOL  HW2   5565   3.247   3.901   2.632
 1856SOL  OW    5566   3.211   3.859   2.896
 1856SOL  HW1   5567   3.216   3.796   2.968
 1856SOL  HW2   5568   3.117   3.862   2.874
 1857SOL  OW    5569   3.206   3.876   3.203
 1857SOL  HW1   5570   3.159   3.917   3.130
 1857SOL  HW2   5571   3.250   3.801   3.163
 1858SOL  OW    5572   3.192   3.846   3.567
 1858SOL  HW1   5573   3.258   3.888   3.622
 1858SOL  HW2   5574   3.219   3.754   3.564
 1859SOL  OW    5575   3.217   3.816   3.885
 1859SOL  HW1   5576   3.311   3.802   3.878
 1859SOL  HW2   5577   3.179   3.728   3.884
 1860SOL  OW    5578   3.553   0.182   0.174
 1860SOL  HW1   5579   3.623   0.118   0.179
 1860SOL  HW2   5580   3.594   0.265   0.196
 1861SOL  OW    5581   3.554   0.145   0.447
 1861SOL  HW1   5582   3.480   0.181   0.399
 1861SOL  HW2   5583   3.540   0.050   0.446
 1862SOL  OW    5584   3.556   0.171   0.805
 1862SOL  HW1   5585   3.469   0.131   0.812
 1862SOL  HW2   5586   3.609   0.106   0.759
 1863SOL  OW    5587   3.544   0.137   1.076
 1863SOL  HW1   5588   3.455   0.118   1.105
 1863SOL  HW2   5589   3.562   0.073   1.008
 1864SOL  OW    5590   3.548   0.148   1.408
 1864SOL  HW1   5591   3.587   0.235   1.419
 1864SOL  HW2   5592   3.595   0.092   1.469
 1865SOL  OW    5593   3.545   0.115   1.698
 1865SOL  HW1   5594   3.552   0.188   1.759
 1865SOL  HW2   5595   3.455   0.118   1.666
 1866SOL  OW    5596   3.549   0.187   1.993
 1866SOL  HW1   5597   3.601   0.107   2.001
 1866SOL  HW2   5598   3.504   0.179   1.909
 1867SOL  OW    5599   3.544   0.152   2.310
 1867SOL  HW1   5600   3.607   0.156   2.383
 1867SOL  HW2   5601   3.556   0.064   2.274
 1868SOL  OW    5602   3.504   0.186   2.648
 1868SOL  HW1   5603   3.543   0.122   2.708
 1868SOL  HW2   5604   3.524   0.152   2.561
 1869SOL  OW    5605   3.542   0.158   2.888
 1869SOL  HW1   5606   3.616   0.098   2.900
 1869SOL  HW2   5607   3.534   0.168   2.793
 1870SOL  OW    5608   3.546   0.148   3.247
 1870SOL  HW1   5609   3.483   0.217   3.226
 1870SOL  HW2   5610   3.586   0.177   3.330
 1871SOL  OW    5611   3.502   0.171   3.521
 1871SOL  HW1   5612   3.436   0.107   3.496
 1871SOL  HW2   5613   3.456   0.234   3.577
 1872SOL  OW    5614   3.551   0.164   3.824
 1872SOL  HW1   5615   3.609   0.217   3.878
 1872SOL  HW2   5616   3.478   0.223   3.801
 1873SOL  OW    5617   3.534   0.488   0.162
 1873SOL  HW1   5618   3.579   0.564   0.200
 1873SOL  HW2   5619   3.585   0.465   0.085
 1874SOL  OW    5620   3.504   0.457   0.446
 1874SOL  HW1   5621   3.526   0.500   0.364
 1874SOL  HW2   5622   3.431   0.399   0.425
 1875SOL  OW    5623   3.550   0.471   0.730
 1875SOL  HW1   5624   3.551   0.381   0.762
 1875SOL  HW2   5625   3.461   0.484   0.697
 1876SOL  OW    5626   3.547   0.480   1.098
 1876SOL  HW1   5627   3.502   0.561   1.074
 1876SOL  HW2   5628   3.640   0.500   1.087
 1877SOL  OW    5629   3.503   0.446   1.378
 1877SOL  HW1   5630   3.478   0.536   1.398
 1877SOL  HW2   5631   3.430   0.393   1.411
 1878SOL  OW    5632   3.513   0.455   1.658
 1878SOL  HW1   5633   3.458   0.398   1.712
 1878SOL  HW2   5634   3.466   0.539   1.657
 1879SOL  OW    5635   3.508   0.475   1.981
 1879SOL  HW1   5636   3.503   0.399   1.923
 1879SOL  HW2   5637   3.538   0.546   1.925
 1880SOL  OW    5638   3.555   0.425   2.313
 1880SOL  HW1   5639   3.461   0.438   2.325
 1880SOL  HW2   5640   3.569   0.332   2.326
 1881SOL  OW    5641   3.530   0.485   2.638
 1881SOL  HW1   5642   3.560   0.395   2.626
 1881SOL  HW2   5643   3.460   0.496   2.574
 1882SOL  OW    5644   3.529   0.471   2.901
 1882SOL  HW1   5645   3.457   0.408   2.908
 1882SOL  HW2   5646   3.566   0.474   2.989
 1883SOL  OW    5647   3.545   0.428   3.226
 1883SOL  HW1   5648   3.636   0.433   3.255
 1883SOL  HW2   5649   3.494   0.422   3.306
 1884SOL  OW    5650   3.513   0.492   3.534
 1884SOL  HW1   5651   3.508   0.580   3.496
 1884SOL  HW2   5652   3.432   0.449   3.507
 1885SOL  OW    5653   3.546   0.450   3.829
 1885SOL  HW1   5654   3.460   0.486   3.852
 1885SOL  HW2   5655   3.559   0.379   3.891
 1886SOL  OW    5656   3.515   0.802   0.178
 1886SOL  HW1   5657   3.580   0.871   0.189
 1886SOL  HW2   5658   3.434   0.840   0.213
 1887SOL  OW    5659   3.509   0.789   0.455
 1887SOL  HW1   5660   3.501   0.883   0.437
 1887SOL  HW2   5661   3.549   0.752   0.376
 1888SOL  OW    5662   3.500   0.772   0.740
 1888SOL  HW1   5663   3.463   0.697   0.692
 1888SOL  HW2   5664   3.500   0.843   0.676
 1889SOL  OW    5665   3.515   0.785   1.057
 1889SOL  HW1   5666   3.548   0.699   1.083
 1889SOL  HW2   5667   3.422   0.783   1.080
 1890SOL  OW    5668   3.570   0.782   1.411
 1890SOL  HW1   5669   3.623   0.732   1.474
 1890SOL  HW2   5670   3.609   0.869   1.410
 1891SOL  OW    5671   3.548   0.799   1.681
 1891SOL  HW1   5672   3.538   0.866   1.748
 1891SOL  HW2   5673   3.580   0.846   1.604
 1892SOL  OW    5674   3.542   0.771   2.032
 1892SOL  HW1   5675   3.524   0.851   1.984
 1892SOL  HW2   5676   3.491   0.703   1.988
 1893SOL  OW    5677   3.512   0.775   2.328
 1893SOL  HW1   5678   3.603   0.779   2.300
 1893SOL  HW2   5679   3.463   0.748   2.250
 1894SOL  OW    5680   3.528   0.799   2.605
 1894SOL  HW1   5681   3.451   0.745   2.624
 1894SOL  HW2   5682   3.540   0.791   2.511
 1895SOL  OW    5683   3.512   0.776   2.917
 1895SOL  HW1   5684   3.497   0.696   2.967
 1895SOL  HW2   5685   3.607   0.789   2.922
 1896SOL  OW    5686   3.500   0.735   3.206
 1896SOL  HW1   5687   3.409   0.704   3.212
 1896SOL  HW2   5688   3.552   0.662   3.240
 1897SOL  OW    5689   3.560   0.801   3.542
 1897SOL  HW1   5690   3.519   0.742   3.479
 1897SOL  HW2   5691   3.563   0.885   3.497
 1898SOL  OW    5692   3.507   0.772   3.875
 1898SOL  HW1   5693   3.449   0.759   3.800
 1898SOL  HW2   5694   3.537   0.684   3.897
 1899SOL  OW    5695   3.558   1.060   0.124
 1899SOL  HW1   5696   3.624   1.050   0.055
 1899SOL  HW2   5697   3.604   1.036   0.204
 1900SOL  OW    5698   3.571   1.105   0.426
 1900SOL  HW1   5699   3.534   1.085   0.340
 1900SOL  HW2   5700   3.566   1.023   0.474
 1901SOL  OW    5701   3.564   1.045   0.734
 1901SOL  HW1   5702   3.558   1.099   0.656
 1901SOL  HW2   5703   3.476   1.010   0.747
 1902SOL  OW    5704   3.559   1.080   1.070
 1902SOL  HW1   5705   3.476   1.045   1.101
 1902SOL  HW2   5706   3.560   1.170   1.101
 1903SOL  OW    5707   3.571   1.104   1.349
 1903SOL  HW1   5708   3.636   1.036   1.362
 1903SOL  HW2   5709   3.529   1.081   1.266
 1904SOL  OW    5710   3.548   1.099   1.696
 1904SOL  HW1   5711   3.623   1.114   1.639
 1904SOL  HW2   5712   3.569   1.018   1.743
 1905SOL  OW    5713   3.577   1.092   1.968
 1905SOL  HW1   5714   3.640   1.110   2.038
 1905SOL  HW2   5715   3.549   1.178   1.938
 1906SOL  OW    5716   3.514   1.103   2.347
 1906SOL  HW1   5717   3.610   1.101   2.340
 1906SOL  HW2   5718   3.498   1.142   2.433
 1907SOL  OW    5719   3.506   1.045   2.636
 1907SOL  HW1   5720   3.577   1.003   2.685
 1907SOL  HW2   5721   3.488   1.126   2.685
 1908SOL  OW    5722   3.504   1.042   2.954
 1908SOL  HW1   5723   3.543   0.989   2.885
 1908SOL  HW2   5724   3.573   1.051   3.020
 1909SOL  OW    5725   3.562   1.107   3.243
 1909SOL  HW1   5726   3.652   1.088   3.272
 1909SOL  HW2   5727   3.536   1.184   3.294
 1910SOL  OW    5728   3.524   1.109   3.522
 1910SOL  HW1   5729   3.602   1.122   3.577
 1910SOL  HW2   5730   3.463   1.177   3.552
 1911SOL  OW    5731   3.521   1.108   3.861
 1911SOL  HW1   5732   3.604   1.153   3.849
 1911SOL  HW2   5733   3.473   1.125   3.779
 1912SOL  OW    5734   3.570   1.357   0.190
 1912SOL  HW1   5735   3.633   1.334   0.122
 1912SOL  HW2   5736   3.561   1.452   0.183
 1913SOL  OW    5737   3.547   1.398   0.495
 1913SOL  HW1   5738   3.530   1.322   0.439
 1913SOL  HW2   5739   3.642   1.413   0.486
 1914SOL  OW    5740   3.529   1.402   0.780
 1914SOL  HW1   5741   3.608   1.384   0.729
 1914SOL  HW2   5742   3.562   1.434   0.864
 1915SOL  OW    5743   3.561   1.416   1.091
 1915SOL  HW1   5744   3.621   1.357   1.046
 1915SOL  HW2   5745   3.565   1.497   1.040
 1916SOL  OW    5746   3.504   1.359   1.421
 1916SOL  HW1   5747   3.528   1.302   1.348
 1916SOL  HW2   5748   3.544   1.319   1.498
 1917SOL  OW    5749   3.576   1.422   1.655
 1917SOL  HW1   5750   3.486   1.414   1.624
 1917SOL  HW2   5751   3.586   1.515   1.674
 1918SOL  OW    5752   3.529   1.405   2.020
 1918SOL  HW1   5753   3.603   1.345   2.018
 1918SOL  HW2   5754   3.500   1.405   2.112
 1919SOL  OW    5755   3.505   1.393   2.279
 1919SOL  HW1   5756   3.510   1.489   2.284
 1919SOL  HW2   5757   3.542   1.372   2.193
 1920SOL  OW    5758   3.538   1.364   2.580
 1920SOL  HW1   5759   3.575   1.320   2.503
 1920SOL  HW2   5760   3.454   1.320   2.594
 1921SOL  OW    5761   3.505   1.417   2.943
 1921SOL  HW1   5762   3.559   1.473   2.887
 1921SOL  HW2   5763   3.448   1.479   2.990
 1922SOL  OW    5764   3.573   1.382   3.224
 1922SOL  HW1   5765   3.641   1.439   3.187
 1922SOL  HW2   5766   3.618   1.300   3.244
 1923SOL  OW    5767   3.527   1.394   3.527
 1923SOL  HW1   5768   3.566   1.467   3.575
 1923SOL  HW2   5769   3.551   1.316   3.577
 1924SOL  OW    5770   3.558   1.409   3.876
 1924SOL  HW1   5771   3.609   1.369   3.947
 1924SOL  HW2   5772   3.544   1.338   3.813
 1925SOL  OW    5773   3.518   1.694   0.132
 1925SOL  HW1   5774   3.435   1.694   0.180
 1925SOL  HW2   5775   3.584   1.713   0.198
 1926SOL  OW    5776   3.501   1.709   0.465
 1926SOL  HW1   5777   3.420   1.710   0.416
 1926SOL  HW2   5778   3.539   1.623   0.448
 1927SOL  OW    5779   3.556   1.659   0.809
 1927SOL  HW1   5780   3.538   1.689   0.898
 1927SOL  HW2   5781   3.645   1.623   0.813
 1928SOL  OW    5782   3.578   1.690   1.106
 1928SOL  HW1   5783   3.662   1.670   1.064
 1928SOL  HW2   5784   3.515   1.695   1.034
 1929SOL  OW    5785   3.518   1.711   1.415
 1929SOL  HW1   5786   3.522   1.765   1.336
 1929SOL  HW2   5787   3.572   1.635   1.395
 1930SOL  OW    5788   3.564   1.717   1.689
 1930SOL  HW1   5789   3.552   1.699   1.596
 1930SOL  HW2   5790   3.475   1.716   1.725
 1931SOL  OW    5791   3.564   1.708   1.971
 1931SOL  HW1   5792   3.599   1.702   2.060
 1931SOL  HW2   5793   3.575   1.799   1.946
 1932SOL  OW    5794   3.508   1.714   2.318
 1932SOL  HW1   5795   3.452   1.770   2.372
 1932SOL  HW2   5796   3.518   1.763   2.236
 1933SOL  OW    5797   3.540   1.725   2.628
 1933SOL  HW1   5798   3.493   1.800   2.592
 1933SOL  HW2   5799   3.535   1.737   2.723
 1934SOL  OW    5800   3.530   1.685   2.931
 1934SOL  HW1   5801   3.574   1.729   2.858
 1934SOL  HW2   5802   3.578   1.715   3.009
 1935SOL  OW    5803   3.559   1.697   3.231
 1935SOL  HW1   5804   3.534   1.608   3.209
 1935SOL  HW2   5805   3.605   1.730   3.154
 1936SOL  OW    5806   3.557   1.709   3.565
 1936SOL  HW1   5807   3.633   1.760   3.591
 1936SOL  HW2   5808   3.592   1.639   3.509
 1937SOL  OW    5809   3.503   1.713   3.847
 1937SOL  HW1   5810   3.443   1.769   3.799
 1937SOL  HW2   5811   3.504   1.749   3.936
 1938SOL  OW    5812   3.504   2.014   0.171
 1938SOL  HW1   5813   3.422   1.988   0.130
 1938SOL  HW2   5814   3.494   2.108   0.188
 1939SOL  OW    5815   3.540   2.024   0.446
 1939SOL  HW1   5816   3.483   2.012   0.522
 1939SOL  HW2   5817   3.482   2.053   0.376
 1940SOL  OW    5818   3.515   1.988   0.762
 1940SOL  HW1   5819   3.476   2.055   0.705
 1940SOL  HW2   5820   3.460   1.990   0.841
 1941SOL  OW    5821   3.554   2.028   1.095
 1941SOL  HW1   5822   3.517   1.947   1.130
 1941SOL  HW2   5823   3.528   2.096   1.157
 1942SOL  OW    5824   3.512   1.989   1.357
 1942SOL  HW1   5825   3.426   1.982   1.397
 1942SOL  HW2   5826   3.568   2.025   1.426
 1943SOL  OW    5827   3.553   1.980   1.694
 1943SOL  HW1   5828   3.587   1.943   1.776
 1943SOL  HW2   5829   3.522   1.904   1.645
 1944SOL  OW    5830   3.562   2.014   1.984
 1944SOL  HW1   5831   3.637   1.957   1.967
 1944SOL  HW2   5832   3.589   2.100   1.953
 1945SOL  OW    5833   3.525   2.012   2.312
 1945SOL  HW1   5834   3.603   1.960   2.292
 1945SOL  HW2   5835   3.454   1.965   2.269
 1946SOL  OW    5836   3.506   2.030   2.616
 1946SOL  HW1   5837   3.431   1.991   2.661
 1946SOL  HW2   5838   3.521   2.112   2.663
 1947SOL  OW    5839   3.536   1.976   2.913
 1947SOL  HW1   5840   3.500   2.012   2.832
 1947SOL  HW2   5841   3.605   2.038   2.938
 1948SOL  OW    5842   3.525   1.982   3.236
 1948SOL  HW1   5843   3.570   1.904   3.268
 1948SOL  HW2   5844   3.504   2.031   3.315
 1949SOL  OW    5845   3.535   2.031   3.574
 1949SOL  HW1   5846   3.459   2.071   3.532
 1949SOL  HW2   5847   3.610   2.061   3.521
 1950SOL  OW    5848   3.516   1.968   3.869
 1950SOL  HW1   5849   3.463   2.002   3.797
 1950SOL  HW2   5850   3.537   2.045   3.921
 1951SOL  OW    5851   3.578   2.337   0.116
 1951SOL  HW1   5852   3.518   2.371   0.182
 1951SOL  HW2   5853   3.548   2.376   0.034
 1952SOL  OW    5854   3.519   2.271   0.487
 1952SOL  HW1   5855   3.556   2.266   0.399
 1952SOL  HW2   5856   3.492   2.363   0.496
 1953SOL  OW    5857   3.545   2.309   0.774
 1953SOL  HW1   5858   3.582   2.378   0.828
 1953SOL  HW2   5859   3.451   2.312   0.791
 1954SOL  OW    5860   3.519   2.316   1.039
 1954SOL  HW1   5861   3.613   2.305   1.027
 1954SOL  HW2   5862   3.510   2.342   1.131
 1955SOL  OW    5863   3.550   2.326   1.398
 1955SOL  HW1   5864   3.476   2.291   1.349
 1955SOL  HW2   5865   3.511   2.393   1.455
 1956SOL  OW    5866   3.525   2.334   1.710
 1956SOL  HW1   5867   3.571   2.349   1.627
 1956SOL  HW2   5868   3.593   2.302   1.769
 1957SOL  OW    5869   3.509   2.283   2.011
 1957SOL  HW1   5870   3.485   2.244   2.095
 1957SOL  HW2   5871   3.601   2.261   1.999
 1958SOL  OW    5872   3.522   2.277   2.280
 1958SOL  HW1   5873   3.536   2.322   2.197
 1958SOL  HW2   5874   3.552   2.188   2.265
 1959SOL  OW    5875   3.512   2.306   2.624
 1959SOL  HW1   5876   3.448   2.237   2.645
 1959SOL  HW2   5877   3.471   2.356   2.553
 1960SOL  OW    5878   3.513   2.325   2.906
 1960SOL  HW1   5879   3.517   2.317   2.810
 1960SOL  HW2   5880   3.604   2.331   2.934
 1961SOL  OW    5881   3.523   2.286   3.254
 1961SOL  HW1   5882   3.595   2.346   3.233
 1961SOL  HW2   5883   3.546   2.205   3.208
 1962SOL  OW    5884   3.575   2.307   3.502
 1962SOL  HW1   5885   3.566   2.396   3.466
 1962SOL  HW2   5886   3.522   2.308   3.582
 1963SOL  OW    5887   3.519   2.280   3.874
 1963SOL  HW1   5888   3.583   2.320   3.933
 1963SOL  HW2   5889   3.438   2.279   3.924
 1964SOL  OW    5890   3.505   2.653   0.161
 1964SOL  HW1   5891   3.512   2.574   0.215
 1964SOL  HW2   5892   3.412   2.660   0.142
 1965SOL  OW    5893   3.540   2.643   0.424
 1965SOL  HW1   5894   3.461   2.658   0.372
 1965SOL  HW2   5895   3.512   2.586   0.495
 1966SOL  OW    5896   3.561   2.585   0.796
 1966SOL  HW1   5897   3.631   2.613   0.738
 1966SOL  HW2   5898   3.596   2.507   0.840
 1967SOL  OW    5899   3.541   2.580   1.104
 1967SOL  HW1   5900   3.615   2.560   1.047
 1967SOL  HW2   5901   3.469   2.600   1.043
 1968SOL  OW    5902   3.501   2.586   1.408
 1968SOL  HW1   5903   3.554   2.666   1.401
 1968SOL  HW2   5904   3.454   2.597   1.492
 1969SOL  OW    5905   3.536   2.646   1.703
 1969SOL  HW1   5906   3.454   2.620   1.746
 1969SOL  HW2   5907   3.560   2.570   1.650
 1970SOL  OW    5908   3.548   2.599   1.971
 1970SOL  HW1   5909   3.553   2.592   1.875
 1970SOL  HW2   5910   3.639   2.595   2.000
 1971SOL  OW    5911   3.575   2.584   2.310
 1971SOL  HW1   5912   3.637   2.590   2.237
 1971SOL  HW2   5913   3.562   2.490   2.323
 1972SOL  OW    5914   3.520   2.597   2.623
 1972SOL  HW1   5915   3.558   2.570   2.539
 1972SOL  HW2   5916   3.459   2.667   2.600
 1973SOL  OW    5917   3.562   2.638   2.953
 1973SOL  HW1   5918   3.590   2.729   2.945
 1973SOL  HW2   5919   3.531   2.629   3.043
 1974SOL  OW    5920   3.522   2.613   3.192
 1974SOL  HW1   5921   3.521   2.521   3.218
 1974SOL  HW2   5922   3.526   2.610   3.096
 1975SOL  OW    5923   3.558   2.600   3.543
 1975SOL  HW1   5924   3.501   2.618   3.469
 1975SOL  HW2   5925   3.503   2.615   3.620
 1976SOL  OW    5926   3.512   2.641   3.872
 1976SOL  HW1   5927   3.446   2.707   3.894
 1976SOL  HW2   5928   3.569   2.685   3.808
 1977SOL  OW    5929   3.569   2.887   0.193
 1977SOL  HW1   5930   3.598   2.803   0.158
 1977SOL  HW2   5931   3.649   2.937   0.205
 1978SOL  OW    5932   3.518   2.908   0.441
 1978SOL  HW1   5933   3.477   2.907   0.355
 1978SOL  HW2   5934   3.522   2.816   0.467
 1979SOL  OW    5935   3.520   2.927   0.748
 1979SOL  HW1   5936   3.605   2.960   0.778
 1979SOL  HW2   5937   3.522   2.834   0.769
 1980SOL  OW    5938   3.530   2.936   1.104
 1980SOL  HW1   5939   3.438   2.959   1.115
 1980SOL  HW2   5940   3.550   2.961   1.014
 1981SOL  OW    5941   3.554   2.931   1.356
 1981SOL  HW1   5942   3.602   3.014   1.355
 1981SOL  HW2   5943   3.465   2.953   1.329
 1982SOL  OW    5944   3.564   2.886   1.673
 1982SOL  HW1   5945   3.532   2.853   1.757
 1982SOL  HW2   5946   3.642   2.937   1.696
 1983SOL  OW    5947   3.503   2.936   1.989
 1983SOL  HW1   5948   3.518   3.031   1.985
 1983SOL  HW2   5949   3.467   2.922   2.077
 1984SOL  OW    5950   3.551   2.911   2.304
 1984SOL  HW1   5951   3.570   2.994   2.348
 1984SOL  HW2   5952   3.635   2.879   2.273
 1985SOL  OW    5953   3.535   2.887   2.610
 1985SOL  HW1   5954   3.518   2.931   2.527
 1985SOL  HW2   5955   3.519   2.953   2.677
 1986SOL  OW    5956   3.550   2.927   2.889
 1986SOL  HW1   5957   3.531   2.833   2.884
 1986SOL  HW2   5958   3.492   2.966   2.824
 1987SOL  OW    5959   3.552   2.908   3.192
 1987SOL  HW1   5960   3.629   2.916   3.249
 1987SOL  HW2   5961   3.549   2.990   3.143
 1988SOL  OW    5962   3.511   2.923   3.523
 1988SOL  HW1   5963   3.420   2.913   3.495
 1988SOL  HW2   5964   3.517   3.014   3.553
 1989SOL  OW    5965   3.554   2.902   3.868
 1989SOL  HW1   5966   3.624   2.967   3.859
 1989SOL  HW2   5967   3.519   2.892   3.780
 1990SOL  OW    5968   3.521   3.240   0.178
 1990SOL  HW1   5969   3.474   3.315   0.215
 1990SOL  HW2   5970   3.505   3.246   0.084
 1991SOL  OW    5971   3.529   3.195   0.464
 1991SOL  HW1   5972   3.546   3.289   0.469
 1991SOL  HW2   5973   3.598   3.155   0.517
 1992SOL  OW    5974   3.578   3.268   0.747
 1992SOL  HW1   5975   3.673   3.255   0.740
 1992SOL  HW2   5976   3.559   3.336   0.683
 1993SOL  OW    5977   3.559   3.218   1.050
 1993SOL  HW1   5978   3.599   3.156   1.111
 1993SOL  HW2   5979   3.538   3.294   1.104
 1994SOL  OW    5980   3.552   3.231   1.388
 1994SOL  HW1   5981   3.503   3.312   1.405
 1994SOL  HW2   5982   3.541   3.178   1.467
 1995SOL  OW    5983   3.565   3.218   1.706
 1995SOL  HW1   5984   3.612   3.156   1.761
 1995SOL  HW2   5985   3.632   3.279   1.676
 1996SOL  OW    5986   3.528   3.194   1.990
 1996SOL  HW1   5987   3.514   3.140   2.068
 1996SOL  HW2   5988   3.557   3.278   2.025
 1997SOL  OW    5989   3.574   3.229   2.276
 1997SOL  HW1   5990   3.560   3.323   2.286
 1997SOL  HW2   5991   3.606   3.220   2.187
 1998SOL  OW    5992   3.553   3.268   2.648
 1998SOL  HW1   5993   3.545   3.361   2.628
 1998SOL  HW2   5994   3.501   3.255   2.727
 1999SOL  OW    5995   3.544   3.221   2.930
 1999SOL  HW1   5996   3.615   3.175   2.885
 1999SOL  HW2   5997   3.522   3.294   2.871
 2000SOL  OW    5998   3.564   3.260   3.256
 2000SOL  HW1   5999   3.610   3.342   3.239
 2000SOL  HW2   6000   3.515   3.276   3.337
 2001SOL  OW    6001   3.535   3.200   3.544
 2001SOL  HW1   6002   3.488   3.225   3.624
 2001SOL  HW2   6003   3.512   3.108   3.531
 2002SOL  OW    6004   3.511   3.196   3.846
 2002SOL  HW1   6005   3.417   3.183   3.857
 2002SOL  HW2   6006   3.530   3.277   3.893
 2003SOL  OW    6007   3.551   3.567   0.176
 2003SOL  HW1   6008   3.623   3.576   0.239
 2003SOL  HW2   6009   3.531   3.656   0.149
 2004SOL  OW    6010   3.567   3.559   0.478
 2004SOL  HW1   6011   3.499   3.498   0.505
 2004SOL  HW2   6012   3.569   3.625   0.547
 2005SOL  OW    6013   3.499   3.549   0.739
 2005SOL  HW1   6014   3.503   3.549   0.643
 2005SOL  HW2   6015   3.575   3.496   0.765
 2006SOL  OW    6016   3.503   3.511   1.103
 2006SOL  HW1   6017   3.539   3.518   1.191
 2006SOL  HW2   6018   3.416   3.551   1.109
 2007SOL  OW    6019   3.558   3.574   1.423
 2007SOL  HW1   6020   3.550   3.537   1.511
 2007SOL  HW2   6021   3.477   3.549   1.378
 2008SOL  OW    6022   3.570   3.509   1.723
 2008SOL  HW1   6023   3.619   3.519   1.804
 2008SOL  HW2   6024   3.598   3.424   1.688
 2009SOL  OW    6025   3.566   3.568   1.972
 2009SOL  HW1   6026   3.490   3.625   1.990
 2009SOL  HW2   6027   3.529   3.480   1.968
 2010SOL  OW    6028   3.508   3.572   2.282
 2010SOL  HW1   6029   3.596   3.573   2.319
 2010SOL  HW2   6030   3.449   3.576   2.357
 2011SOL  OW    6031   3.528   3.535   2.585
 2011SOL  HW1   6032   3.448   3.587   2.585
 2011SOL  HW2   6033   3.511   3.465   2.649
 2012SOL  OW    6034   3.500   3.578   2.953
 2012SOL  HW1   6035   3.408   3.551   2.954
 2012SOL  HW2   6036   3.549   3.498   2.972
 2013SOL  OW    6037   3.571   3.521   3.208
 2013SOL  HW1   6038   3.592   3.518   3.115
 2013SOL  HW2   6039   3.655   3.540   3.251
 2014SOL  OW    6040   3.533   3.535   3.499
 2014SOL  HW1   6041   3.549   3.629   3.506
 2014SOL  HW2   6042   3.605   3.494   3.545
 2015SOL  OW    6043   3.561   3.578   3.848
 2015SOL  HW1   6044   3.589   3.547   3.762
 2015SOL  HW2   6045   3.558   3.674   3.840
 2016SOL  OW    6046   3.530   3.838   0.122
 2016SOL  HW1   6047   3.458   3.778   0.145
 2016SOL  HW2   6048   3.607   3.801   0.165
 2017SOL  OW    6049   3.520   3.846   0.456
 2017SOL  HW1   6050   3.599   3.900   0.457
 2017SOL  HW2   6051   3.448   3.908   0.472
 2018SOL  OW    6052   3.542   3.874   0.747
 2018SOL  HW1   6053   3.633   3.847   0.756
 2018SOL  HW2   6054   3.545   3.948   0.687
 2019SOL  OW    6055   3.501   3.809   1.048
 2019SOL  HW1   6056   3.419   3.760   1.051
 2019SOL  HW2   6057   3.533   3.795   0.959
 2020SOL  OW    6058   3.544   3.871   1.416
 2020SOL  HW1   6059   3.624   3.895   1.463
 2020SOL  HW2   6060   3.573   3.806   1.351
 2021SOL  OW    6061   3.549   3.838   1.665
 2021SOL  HW1   6062   3.563   3.878   1.578
 2021SOL  HW2   6063   3.465   3.794   1.658
 2022SOL  OW    6064   3.531   3.833   2.030
 2022SOL  HW1   6065   3.590   3.863   2.098
 2022SOL  HW2   6066   3.587   3.816   1.954
 2023SOL  OW    6067   3.537   3.824   2.291
 2023SOL  HW1   6068   3.576   3.806   2.376
 2023SOL  HW2   6069   3.447   3.849   2.310
 2024SOL  OW    6070   3.509   3.880   2.579
 2024SOL  HW1   6071   3.428   3.857   2.534
 2024SOL  HW2   6072   3.558   3.798   2.584
 2025SOL  OW    6073   3.499   3.821   2.948
 2025SOL  HW1   6074   3.461   3.907   2.933
 2025SOL  HW2   6075   3.448   3.762   2.892
 2026SOL  OW    6076   3.540   3.856   3.219
 2026SOL  HW1   6077   3.497   3.794   3.277
 2026SOL  HW2   6078   3.628   3.821   3.208
 2027SOL  OW    6079   3.504   3.875   3.514
 2027SOL  HW1   6080   3.533   3.804   3.456
 2027SOL  HW2   6081   3.409   3.864   3.519
 2028SOL  OW    6082   3.501   3.852   3.813
 2028SOL  HW1   6083   3.517   3.805   3.894
 2028SOL  HW2   6084   3.574   3.827   3.756
 2029SOL  OW    6085   3.814   0.178   0.153
 2029SOL  HW1   6086   3.781   0.146   0.069
 2029SOL  HW2   6087   3.909   0.181   0.142
 2030SOL  OW    6088   3.825   0.142   0.480
 2030SOL  HW1   6089   3.892   0.210   0.479
 2030SOL  HW2   6090   3.874   0.061   0.498
 2031SOL  OW    6091   3.811   0.123   0.779
 2031SOL  HW1   6092   3.863   0.197   0.746
 2031SOL  HW2   6093   3.800   0.066   0.702
 2032SOL  OW    6094   3.855   0.192   1.067
 2032SOL  HW1   6095   3.889   0.151   0.987
 2032SOL  HW2   6096   3.900   0.147   1.138
 2033SOL  OW    6097   3.811   0.157   1.396
 2033SOL  HW1   6098   3.825   0.111   1.313
 2033SOL  HW2   6099   3.877   0.227   1.396
 2034SOL  OW    6100   3.817   0.158   1.668
 2034SOL  HW1   6101   3.855   0.244   1.647
 2034SOL  HW2   6102   3.890   0.109   1.707
 2035SOL  OW    6103   3.874   0.181   1.994
 2035SOL  HW1   6104   3.925   0.222   1.925
 2035SOL  HW2   6105   3.935   0.170   2.067
 2036SOL  OW    6106   3.883   0.192   2.278
 2036SOL  HW1   6107   3.797   0.214   2.243
 2036SOL  HW2   6108   3.875   0.207   2.372
 2037SOL  OW    6109   3.836   0.162   2.582
 2037SOL  HW1   6110   3.834   0.227   2.512
 2037SOL  HW2   6111   3.808   0.210   2.660
 2038SOL  OW    6112   3.837   0.135   2.959
 2038SOL  HW1   6113   3.819   0.200   3.027
 2038SOL  HW2   6114   3.750   0.105   2.931
 2039SOL  OW    6115   3.839   0.175   3.222
 2039SOL  HW1   6116   3.786   0.098   3.244
 2039SOL  HW2   6117   3.804   0.204   3.137
 2040SOL  OW    6118   3.817   0.183   3.498
 2040SOL  HW1   6119   3.855   0.161   3.413
 2040SOL  HW2   6120   3.863   0.262   3.526
 2041SOL  OW    6121   3.811   0.143   3.861
 2041SOL  HW1   6122   3.859   0.061   3.873
 2041SOL  HW2   6123   3.873   0.212   3.885
 2042SOL  OW    6124   3.833   0.427   0.139
 2042SOL  HW1   6125   3.828   0.339   0.102
 2042SOL  HW2   6126   3.923   0.456   0.120
 2043SOL  OW    6127   3.826   0.422   0.464
 2043SOL  HW1   6128   3.753   0.422   0.526
 2043SOL  HW2   6129   3.785   0.435   0.379
 2044SOL  OW    6130   3.815   0.445   0.781
 2044SOL  HW1   6131   3.837   0.529   0.740
 2044SOL  HW2   6132   3.860   0.380   0.726
 2045SOL  OW    6133   3.864   0.443   1.063
 2045SOL  HW1   6134   3.904   0.357   1.048
 2045SOL  HW2   6135   3.813   0.460   0.984
 2046SOL  OW    6136   3.826   0.498   1.360
 2046SOL  HW1   6137   3.745   0.517   1.407
 2046SOL  HW2   6138   3.827   0.403   1.351
 2047SOL  OW    6139   3.821   0.457   1.667
 2047SOL  HW1   6140   3.792   0.402   1.740
 2047SOL  HW2   6141   3.803   0.547   1.697
 2048SOL  OW    6142   3.819   0.429   2.011
 2048SOL  HW1   6143   3.913   0.440   2.002
 2048SOL  HW2   6144   3.805   0.415   2.105
 2049SOL  OW    6145   3.855   0.474   2.330
 2049SOL  HW1   6146   3.925   0.426   2.284
 2049SOL  HW2   6147   3.782   0.412   2.332
 2050SOL  OW    6148   3.832   0.495   2.634
 2050SOL  HW1   6149   3.863   0.583   2.613
 2050SOL  HW2   6150   3.889   0.466   2.705
 2051SOL  OW    6151   3.871   0.479   2.912
 2051SOL  HW1   6152   3.862   0.409   2.847
 2051SOL  HW2   6153   3.963   0.504   2.907
 2052SOL  OW    6154   3.829   0.455   3.199
 2052SOL  HW1   6155   3.870   0.429   3.116
 2052SOL  HW2   6156   3.735   0.446   3.182
 2053SOL  OW    6157   3.842   0.425   3.499
 2053SOL  HW1   6158   3.923   0.430   3.551
 2053SOL  HW2   6159   3.858   0.484   3.425
 2054SOL  OW    6160   3.881   0.477   3.851
 2054SOL  HW1   6161   3.816   0.500   3.785
 2054SOL  HW2   6162   3.904   0.386   3.831
 2055SOL  OW    6163   3.833   0.775   0.185
 2055SOL  HW1   6164   3.921   0.738   0.198
 2055SOL  HW2   6165   3.795   0.776   0.273
 2056SOL  OW    6166   3.858   0.777   0.458
 2056SOL  HW1   6167   3.927   0.715   0.482
 2056SOL  HW2   6168   3.897   0.829   0.388
 2057SOL  OW    6169   3.834   0.785   0.808
 2057SOL  HW1   6170   3.927   0.799   0.822
 2057SOL  HW2   6171   3.791   0.846   0.868
 2058SOL  OW    6172   3.840   0.761   1.071
 2058SOL  HW1   6173   3.925   0.768   1.115
 2058SOL  HW2   6174   3.801   0.848   1.079
 2059SOL  OW    6175   3.840   0.808   1.401
 2059SOL  HW1   6176   3.880   0.722   1.397
 2059SOL  HW2   6177   3.852   0.845   1.314
 2060SOL  OW    6178   3.835   0.759   1.687
 2060SOL  HW1   6179   3.879   0.821   1.628
 2060SOL  HW2   6180   3.743   0.761   1.660
 2061SOL  OW    6181   3.809   0.771   2.025
 2061SOL  HW1   6182   3.848   0.851   2.060
 2061SOL  HW2   6183   3.877   0.705   2.036
 2062SOL  OW    6184   3.859   0.745   2.326
 2062SOL  HW1   6185   3.911   0.822   2.303
 2062SOL  HW2   6186   3.817   0.720   2.244
 2063SOL  OW    6187   3.864   0.750   2.625
 2063SOL  HW1   6188   3.877   0.697   2.546
 2063SOL  HW2   6189   3.862   0.687   2.697
 2064SOL  OW    6190   3.855   0.796   2.894
 2064SOL  HW1   6191   3.843   0.702   2.888
 2064SOL  HW2   6192   3.928   0.808   2.955
 2065SOL  OW    6193   3.822   0.768   3.194
 2065SOL  HW1   6194   3.859   0.814   3.270
 2065SOL  HW2   6195   3.781   0.837   3.142
 2066SOL  OW    6196   3.839   0.792   3.510
 2066SOL  HW1   6197   3.749   0.802   3.481
 2066SOL  HW2   6198   3.836   0.807   3.605
 2067SOL  OW    6199   3.843   0.808   3.847
 2067SOL  HW1   6200   3.874   0.858   3.922
 2067SOL  HW2   6201   3.922   0.773   3.807
 2068SOL  OW    6202   3.846   1.082   0.129
 2068SOL  HW1   6203   3.822   1.159   0.078
 2068SOL  HW2   6204   3.870   1.016   0.063
 2069SOL  OW    6205   3.818   1.091   0.453
 2069SOL  HW1   6206   3.753   1.053   0.512
 2069SOL  HW2   6207   3.825   1.182   0.482
 2070SOL  OW    6208   3.829   1.039   0.797
 2070SOL  HW1   6209   3.742   1.075   0.783
 2070SOL  HW2   6210   3.877   1.109   0.843
 2071SOL  OW    6211   3.809   1.097   1.067
 2071SOL  HW1   6212   3.714   1.106   1.058
 2071SOL  HW2   6213   3.845   1.128   0.984
 2072SOL  OW    6214   3.854   1.057   1.357
 2072SOL  HW1   6215   3.787   1.025   1.297
 2072SOL  HW2   6216   3.848   1.152   1.351
 2073SOL  OW    6217   3.849   1.093   1.668
 2073SOL  HW1   6218   3.850   1.137   1.753
 2073SOL  HW2   6219   3.823   1.003   1.688
 2074SOL  OW    6220   3.841   1.072   1.977
 2074SOL  HW1   6221   3.777   1.011   2.012
 2074SOL  HW2   6222   3.797   1.157   1.981
 2075SOL  OW    6223   3.851   1.049   2.308
 2075SOL  HW1   6224   3.936   1.005   2.319
 2075SOL  HW2   6225   3.861   1.102   2.230
 2076SOL  OW    6226   3.815   1.076   2.600
 2076SOL  HW1   6227   3.798   1.089   2.693
 2076SOL  HW2   6228   3.808   0.981   2.588
 2077SOL  OW    6229   3.842   1.072   2.956
 2077SOL  HW1   6230   3.838   1.164   2.978
 2077SOL  HW2   6231   3.830   1.069   2.861
 2078SOL  OW    6232   3.845   1.102   3.209
 2078SOL  HW1   6233   3.836   1.018   3.165
 2078SOL  HW2   6234   3.899   1.084   3.286
 2079SOL  OW    6235   3.834   1.043   3.532
 2079SOL  HW1   6236   3.863   1.013   3.618
 2079SOL  HW2   6237   3.739   1.032   3.533
 2080SOL  OW    6238   3.860   1.104   3.851
 2080SOL  HW1   6239   3.783   1.160   3.845
 2080SOL  HW2   6240   3.857   1.051   3.772
 2081SOL  OW    6241   3.857   1.359   0.117
 2081SOL  HW1   6242   3.808   1.437   0.091
 2081SOL  HW2   6243   3.902   1.332   0.037
 2082SOL  OW    6244   3.869   1.358   0.429
 2082SOL  HW1   6245   3.877   1.429   0.365
 2082SOL  HW2   6246   3.940   1.297   0.406
 2083SOL  OW    6247   3.881   1.422   0.779
 2083SOL  HW1   6248   3.920   1.509   0.777
 2083SOL  HW2   6249   3.956   1.362   0.780
 2084SOL  OW    6250   3.836   1.411   1.053
 2084SOL  HW1   6251   3.753   1.431   1.011
 2084SOL  HW2   6252   3.873   1.497   1.075
 2085SOL  OW    6253   3.841   1.373   1.418
 2085SOL  HW1   6254   3.862   1.295   1.367
 2085SOL  HW2   6255   3.908   1.436   1.393
 2086SOL  OW    6256   3.880   1.397   1.661
 2086SOL  HW1   6257   3.830   1.461   1.712
 2086SOL  HW2   6258   3.971   1.417   1.680
 2087SOL  OW    6259   3.845   1.364   2.031
 2087SOL  HW1   6260   3.750   1.357   2.043
 2087SOL  HW2   6261   3.868   1.450   2.068
 2088SOL  OW    6262   3.817   1.349   2.324
 2088SOL  HW1   6263   3.887   1.383   2.267
 2088SOL  HW2   6264   3.828   1.254   2.321
 2089SOL  OW    6265   3.842   1.412   2.581
 2089SOL  HW1   6266   3.756   1.400   2.541
 2089SOL  HW2   6267   3.896   1.454   2.514
 2090SOL  OW    6268   3.870   1.348   2.885
 2090SOL  HW1   6269   3.794   1.402   2.863
 2090SOL  HW2   6270   3.833   1.268   2.923
 2091SOL  OW    6271   3.843   1.362   3.238
 2091SOL  HW1   6272   3.815   1.274   3.263
 2091SOL  HW2   6273   3.802   1.378   3.153
 2092SOL  OW    6274   3.808   1.347   3.557
 2092SOL  HW1   6275   3.827   1.337   3.650
 2092SOL  HW2   6276   3.740   1.415   3.553
 2093SOL  OW    6277   3.823   1.397   3.866
 2093SOL  HW1   6278   3.728   1.402   3.873
 2093SOL  HW2   6279   3.842   1.428   3.777
 2094SOL  OW    6280   3.811   1.714   0.135
 2094SOL  HW1   6281   3.845   1.633   0.098
 2094SOL  HW2   6282   3.733   1.734   0.083
 2095SOL  OW    6283   3.837   1.659   0.489
 2095SOL  HW1   6284   3.760   1.708   0.517
 2095SOL  HW2   6285   3.804   1.593   0.429
 2096SOL  OW    6286   3.851   1.693   0.807
 2096SOL  HW1   6287   3.832   1.733   0.722
 2096SOL  HW2   6288   3.785   1.625   0.816
 2097SOL  OW    6289   3.833   1.724   1.094
 2097SOL  HW1   6290   3.826   1.689   1.005
 2097SOL  HW2   6291   3.906   1.786   1.091
 2098SOL  OW    6292   3.880   1.725   1.424
 2098SOL  HW1   6293   3.914   1.813   1.442
 2098SOL  HW2   6294   3.920   1.670   1.492
 2099SOL  OW    6295   3.817   1.716   1.717
 2099SOL  HW1   6296   3.754   1.663   1.766
 2099SOL  HW2   6297   3.790   1.705   1.625
 2100SOL  OW    6298   3.858   1.675   2.037
 2100SOL  HW1   6299   3.810   1.647   1.959
 2100SOL  HW2   6300   3.833   1.611   2.104
 2101SOL  OW    6301   3.823   1.692   2.309
 2101SOL  HW1   6302   3.782   1.608   2.329
 2101SOL  HW2   6303   3.770   1.728   2.237
 2102SOL  OW    6304   3.819   1.710   2.582
 2102SOL  HW1   6305   3.795   1.748   2.667
 2102SOL  HW2   6306   3.762   1.754   2.519
 2103SOL  OW    6307   3.862   1.720   2.911
 2103SOL  HW1   6308   3.894   1.753   2.995
 2103SOL  HW2   6309   3.781   1.769   2.895
 2104SOL  OW    6310   3.863   1.665   3.258
 2104SOL  HW1   6311   3.949   1.678   3.219
 2104SOL  HW2   6312   3.881   1.647   3.351
 2105SOL  OW    6313   3.882   1.665   3.554
 2105SOL  HW1   6314   3.936   1.641   3.478
 2105SOL  HW2   6315   3.805   1.608   3.547
 2106SOL  OW    6316   3.847   1.695   3.863
 2106SOL  HW1   6317   3.819   1.722   3.950
 2106SOL  HW2   6318   3.768   1.658   3.822
 2107SOL  OW    6319   3.845   2.008   0.132
 2107SOL  HW1   6320   3.837   1.949   0.207
 2107SOL  HW2   6321   3.870   1.951   0.059
 2108SOL  OW    6322   3.836   2.029   0.430
 2108SOL  HW1   6323   3.804   2.066   0.513
 2108SOL  HW2   6324   3.928   2.008   0.448
 2109SOL  OW    6325   3.854   1.975   0.797
 2109SOL  HW1   6326   3.867   1.905   0.733
 2109SOL  HW2   6327   3.794   1.938   0.862
 2110SOL  OW    6328   3.852   1.992   1.057
 2110SOL  HW1   6329   3.929   1.936   1.047
 2110SOL  HW2   6330   3.886   2.072   1.098
 2111SOL  OW    6331   3.841   2.037   1.385
 2111SOL  HW1   6332   3.818   1.945   1.403
 2111SOL  HW2   6333   3.823   2.048   1.292
 2112SOL  OW    6334   3.844   2.020   1.683
 2112SOL  HW1   6335   3.799   2.046   1.602
 2112SOL  HW2   6336   3.866   1.928   1.669
 2113SOL  OW    6337   3.840   1.987   1.972
 2113SOL  HW1   6338   3.781   1.969   1.899
 2113SOL  HW2   6339   3.923   1.947   1.946
 2114SOL  OW    6340   3.863   2.030   2.340
 2114SOL  HW1   6341   3.916   2.107   2.361
 2114SOL  HW2   6342   3.773   2.063   2.336
 2115SOL  OW    6343   3.877   1.996   2.598
 2115SOL  HW1   6344   3.940   2.005   2.669
 2115SOL  HW2   6345   3.792   1.988   2.643
 2116SOL  OW    6346   3.857   2.036   2.941
 2116SOL  HW1   6347   3.880   2.055   2.850
 2116SOL  HW2   6348   3.933   2.067   2.991
 2117SOL  OW    6349   3.846   2.015   3.253
 2117SOL  HW1   6350   3.924   1.983   3.297
 2117SOL  HW2   6351   3.857   2.110   3.250
 2118SOL  OW    6352   3.880   2.021   3.533
 2118SOL  HW1   6353   3.908   2.106   3.567
 2118SOL  HW2   6354   3.796   2.005   3.577
 2119SOL  OW    6355   3.828   2.000   3.832
 2119SOL  HW1   6356   3.910   2.036   3.798
 2119SOL  HW2   6357   3.762   2.066   3.812
 2120SOL  OW    6358   3.882   2.308   0.152
 2120SOL  HW1   6359   3.895   2.251   0.227
 2120SOL  HW2   6360   3.953   2.372   0.157
 2121SOL  OW    6361   3.834   2.319   0.463
 2121SOL  HW1   6362   3.813   2.237   0.419
 2121SOL  HW2   6363   3.927   2.332   0.447
 2122SOL  OW    6364   3.816   2.337   0.758
 2122SOL  HW1   6365   3.768   2.268   0.804
 2122SOL  HW2   6366   3.811   2.313   0.665
 2123SOL  OW    6367   3.841   2.284   1.081
 2123SOL  HW1   6368   3.849   2.374   1.114
 2123SOL  HW2   6369   3.855   2.229   1.158
 2124SOL  OW    6370   3.862   2.338   1.349
 2124SOL  HW1   6371   3.933   2.311   1.291
 2124SOL  HW2   6372   3.883   2.298   1.433
 2125SOL  OW    6373   3.884   2.324   1.675
 2125SOL  HW1   6374   3.827   2.326   1.599
 2125SOL  HW2   6375   3.825   2.309   1.749
 2126SOL  OW    6376   3.823   2.291   2.030
 2126SOL  HW1   6377   3.730   2.310   2.016
 2126SOL  HW2   6378   3.868   2.354   1.974
 2127SOL  OW    6379   3.829   2.305   2.324
 2127SOL  HW1   6380   3.921   2.308   2.295
 2127SOL  HW2   6381   3.780   2.340   2.250
 2128SOL  OW    6382   3.876   2.320   2.636
 2128SOL  HW1   6383   3.883   2.240   2.688
 2128SOL  HW2   6384   3.794   2.360   2.664
 2129SOL  OW    6385   3.820   2.338   2.905
 2129SOL  HW1   6386   3.775   2.256   2.925
 2129SOL  HW2   6387   3.912   2.320   2.925
 2130SOL  OW    6388   3.816   2.346   3.207
 2130SOL  HW1   6389   3.827   2.358   3.301
 2130SOL  HW2   6390   3.881   2.279   3.184
 2131SOL  OW    6391   3.817   2.318   3.524
 2131SOL  HW1   6392   3.800   2.224   3.512
 2131SOL  HW2   6393   3.882   2.322   3.594
 2132SOL  OW    6394   3.817   2.316   3.867
 2132SOL  HW1   6395   3.809   2.410   3.853
 2132SOL  HW2   6396   3.891   2.307   3.926
 2133SOL  OW    6397   3.870   2.588   0.158
 2133SOL  HW1   6398   3.892   2.554   0.245
 2133SOL  HW2   6399   3.871   2.511   0.102
 2134SOL  OW    6400   3.871   2.588   0.438
 2134SOL  HW1   6401   3.939   2.643   0.477
 2134SOL  HW2   6402   3.822   2.648   0.382
 2135SOL  OW    6403   3.806   2.617   0.745
 2135SOL  HW1   6404   3.800   2.561   0.822
 2135SOL  HW2   6405   3.899   2.640   0.739
 2136SOL  OW    6406   3.864   2.652   1.054
 2136SOL  HW1   6407   3.870   2.598   0.975
 2136SOL  HW2   6408   3.785   2.622   1.098
 2137SOL  OW    6409   3.858   2.592   1.346
 2137SOL  HW1   6410   3.868   2.637   1.262
 2137SOL  HW2   6411   3.817   2.657   1.403
 2138SOL  OW    6412   3.867   2.610   1.728
 2138SOL  HW1   6413   3.793   2.662   1.760
 2138SOL  HW2   6414   3.826   2.531   1.692
 2139SOL  OW    6415   3.849   2.588   1.996
 2139SOL  HW1   6416   3.884   2.665   2.040
 2139SOL  HW2   6417   3.759   2.613   1.972
 2140SOL  OW    6418   3.822   2.646   2.323
 2140SOL  HW1   6419   3.757   2.715   2.333
 2140SOL  HW2   6420   3.773   2.571   2.290
 2141SOL  OW    6421   3.833   2.618   2.629
 2141SOL  HW1   6422   3.874   2.573   2.703
 2141SOL  HW2   6423   3.776   2.683   2.669
 2142SOL  OW    6424   3.869   2.582   2.885
 2142SOL  HW1   6425   3.865   2.554   2.793
 2142SOL  HW2   6426   3.962   2.600   2.901
 2143SOL  OW    6427   3.815   2.607   3.228
 2143SOL  HW1   6428   3.818   2.683   3.286
 2143SOL  HW2   6429   3.849   2.639   3.144
 2144SOL  OW    6430   3.817   2.608   3.534
 2144SOL  HW1   6431   3.738   2.605   3.480
 2144SOL  HW2   6432   3.823   2.522   3.574
 2145SOL  OW    6433   3.815   2.649   3.854
 2145SOL  HW1   6434   3.907   2.647   3.827
 2145SOL  HW2   6435   3.770   2.595   3.789
 2146SOL  OW    6436   3.837   2.924   0.139
 2146SOL  HW1   6437   3.882   2.968   0.211
 2146SOL  HW2   6438   3.879   2.958   0.060
 2147SOL  OW    6439   3.875   2.929   0.461
 2147SOL  HW1   6440   3.957   2.933   0.413
 2147SOL  HW2   6441   3.807   2.936   0.394
 2148SOL  OW    6442   3.879   2.950   0.794
 2148SOL  HW1   6443   3.962   2.972   0.752
 2148SOL  HW2   6444   3.849   2.871   0.749
 2149SOL  OW    6445   3.824   2.895   1.092
 2149SOL  HW1   6446   3.772   2.972   1.116
 2149SOL  HW2   6447   3.821   2.839   1.169
 2150SOL  OW    6448   3.844   2.938   1.405
 2150SOL  HW1   6449   3.918   2.961   1.460
 2150SOL  HW2   6450   3.782   2.895   1.465
 2151SOL  OW    6451   3.830   2.906   1.692
 2151SOL  HW1   6452   3.839   2.882   1.599
 2151SOL  HW2   6453   3.835   3.001   1.692
 2152SOL  OW    6454   3.828   2.936   2.020
 2152SOL  HW1   6455   3.757   2.873   2.008
 2152SOL  HW2   6456   3.876   2.905   2.097
 2153SOL  OW    6457   3.844   2.941   2.309
 2153SOL  HW1   6458   3.801   2.886   2.374
 2153SOL  HW2   6459   3.864   3.022   2.355
 2154SOL  OW    6460   3.863   2.901   2.634
 2154SOL  HW1   6461   3.894   2.936   2.718
 2154SOL  HW2   6462   3.903   2.814   2.628
 2155SOL  OW    6463   3.863   2.904   2.928
 2155SOL  HW1   6464   3.918   2.970   2.970
 2155SOL  HW2   6465   3.879   2.917   2.834
 2156SOL  OW    6466   3.875   2.903   3.250
 2156SOL  HW1   6467   3.822   2.842   3.301
 2156SOL  HW2   6468   3.946   2.850   3.214
 2157SOL  OW    6469   3.882   2.952   3.531
 2157SOL  HW1   6470   3.802   2.971   3.483
 2157SOL  HW2   6471   3.929   3.036   3.533
 2158SOL  OW    6472   3.855   2.962   3.852
 2158SOL  HW1   6473   3.910   2.958   3.929
 2158SOL  HW2   6474   3.774   3.005   3.882
 2159SOL  OW    6475   3.815   3.194   0.177
 2159SOL  HW1   6476   3.852   3.109   0.155
 2159SOL  HW2   6477   3.780   3.183   0.265
 2160SOL  OW    6478   3.840   3.211   0.449
 2160SOL  HW1   6479   3.829   3.128   0.402
 2160SOL  HW2   6480   3.892   3.187   0.526
 2161SOL  OW    6481   3.867   3.228   0.799
 2161SOL  HW1   6482   3.909   3.200   0.880
 2161SOL  HW2   6483   3.917   3.185   0.730
 2162SOL  OW    6484   3.865   3.269   1.108
 2162SOL  HW1   6485   3.794   3.224   1.154
 2162SOL  HW2   6486   3.945   3.234   1.148
 2163SOL  OW    6487   3.827   3.243   1.346
 2163SOL  HW1   6488   3.789   3.159   1.370
 2163SOL  HW2   6489   3.761   3.308   1.375
 2164SOL  OW    6490   3.885   3.212   1.705
 2164SOL  HW1   6491   3.925   3.270   1.770
 2164SOL  HW2   6492   3.890   3.261   1.624
 2165SOL  OW    6493   3.874   3.204   2.028
 2165SOL  HW1   6494   3.841   3.251   1.951
 2165SOL  HW2   6495   3.824   3.239   2.101
 2166SOL  OW    6496   3.807   3.226   2.305
 2166SOL  HW1   6497   3.774   3.263   2.223
 2166SOL  HW2   6498   3.902   3.238   2.301
 2167SOL  OW    6499   3.836   3.238   2.649
 2167SOL  HW1   6500   3.792   3.246   2.564
 2167SOL  HW2   6501   3.781   3.177   2.698
 2168SOL  OW    6502   3.832   3.237   2.953
 2168SOL  HW1   6503   3.892   3.259   3.025
 2168SOL  HW2   6504   3.778   3.315   2.943
 2169SOL  OW    6505   3.868   3.194   3.266
 2169SOL  HW1   6506   3.815   3.271   3.246
 2169SOL  HW2   6507   3.909   3.170   3.183
 2170SOL  OW    6508   3.810   3.238   3.544
 2170SOL  HW1   6509   3.765   3.153   3.547
 2170SOL  HW2   6510   3.743   3.300   3.515
 2171SOL  OW    6511   3.869   3.203   3.821
 2171SOL  HW1   6512   3.900   3.167   3.737
 2171SOL  HW2   6513   3.938   3.181   3.883
 2172SOL  OW    6514   3.866   3.510   0.151
 2172SOL  HW1   6515   3.896   3.599   0.129
 2172SOL  HW2   6516   3.914   3.489   0.231
 2173SOL  OW    6517   3.865   3.551   0.438
 2173SOL  HW1   6518   3.848   3.603   0.517
 2173SOL  HW2   6519   3.960   3.549   0.430
 2174SOL  OW    6520   3.830   3.576   0.765
 2174SOL  HW1   6521   3.796   3.659   0.733
 2174SOL  HW2   6522   3.900   3.553   0.703
 2175SOL  OW    6523   3.810   3.516   1.064
 2175SOL  HW1   6524   3.839   3.546   0.978
 2175SOL  HW2   6525   3.808   3.421   1.058
 2176SOL  OW    6526   3.886   3.523   1.347
 2176SOL  HW1   6527   3.945   3.583   1.391
 2176SOL  HW2   6528   3.813   3.513   1.407
 2177SOL  OW    6529   3.847   3.505   1.674
 2177SOL  HW1   6530   3.874   3.581   1.622
 2177SOL  HW2   6531   3.755   3.492   1.652
 2178SOL  OW    6532   3.886   3.555   1.964
 2178SOL  HW1   6533   3.870   3.643   1.999
 2178SOL  HW2   6534   3.940   3.512   2.030
 2179SOL  OW    6535   3.842   3.512   2.278
 2179SOL  HW1   6536   3.894   3.443   2.236
 2179SOL  HW2   6537   3.898   3.545   2.348
 2180SOL  OW    6538   3.853   3.539   2.635
 2180SOL  HW1   6539   3.896   3.548   2.550
 2180SOL  HW2   6540   3.781   3.601   2.632
 2181SOL  OW    6541   3.878   3.518   2.957
 2181SOL  HW1   6542   3.804   3.574   2.932
 2181SOL  HW2   6543   3.845   3.429   2.945
 2182SOL  OW    6544   3.848   3.519   3.258
 2182SOL  HW1   6545   3.883   3.567   3.333
 2182SOL  HW2   6546   3.852   3.427   3.284
 2183SOL  OW    6547   3.809   3.543   3.556
 2183SOL  HW1   6548   3.844   3.570   3.471
 2183SOL  HW2   6549   3.878   3.489   3.594
 2184SOL  OW    6550   3.829   3.568   3.825
 2184SOL  HW1   6551   3.745   3.562   3.779
 2184SOL  HW2   6552   3.894   3.579   3.756
 2185SOL  OW    6553   3.873   3.812   0.127
 2185SOL  HW1   6554   3.814   3.738   0.128
 2185SOL  HW2   6555   3.818   3.887   0.103
 2186SOL  OW    6556   3.837   3.874   0.433
 2186SOL  HW1   6557   3.754   3.854   0.389
 2186SOL  HW2   6558   3.900   3.813   0.396
 2187SOL  OW    6559   3.876   3.825   0.765
 2187SOL  HW1   6560   3.963   3.836   0.728
 2187SOL  HW2   6561   3.892   3.812   0.859
 2188SOL  OW    6562   3.834   3.816   1.112
 2188SOL  HW1   6563   3.825   3.909   1.092
 2188SOL  HW2   6564   3.911   3.811   1.170
 2189SOL  OW    6565   3.841   3.861   1.391
 2189SOL  HW1   6566   3.756   3.902   1.407
 2189SOL  HW2   6567   3.820   3.775   1.354
 2190SOL  OW    6568   3.846   3.855   1.724
 2190SOL  HW1   6569   3.883   3.783   1.674
 2190SOL  HW2   6570   3.782   3.896   1.666
 2191SOL  OW    6571   3.862   3.849   2.012
 2191SOL  HW1   6572   3.877   3.889   2.097
 2191SOL  HW2   6573   3.932   3.784   2.003
 2192SOL  OW    6574   3.855   3.841   2.318
 2192SOL  HW1   6575   3.886   3.879   2.400
 2192SOL  HW2   6576   3.934   3.828   2.266
 2193SOL  OW    6577   3.842   3.867   2.653
 2193SOL  HW1   6578   3.898   3.897   2.724
 2193SOL  HW2   6579   3.896   3.874   2.574
 2194SOL  OW    6580   3.883   3.872   2.931
 2194SOL  HW1   6581   3.927   3.868   2.846
 2194SOL  HW2   6582   3.834   3.789   2.937
 2195SOL  OW    6583   3.866   3.820   3.229
 2195SOL  HW1   6584   3.826   3.907   3.220
 2195SOL  HW2   6585   3.921   3.811   3.151
 2196SOL  OW    6586   3.827   3.806   3.576
 2196SOL  HW1   6587   3.819   3.885   3.631
 2196SOL  HW2   6588   3.834   3.840   3.487
 2197SOL  OW    6589   3.875   3.847   3.826
 2197SOL  HW1   6590   3.927   3.776   3.790
 2197SOL  HW2   6591   3.794   3.806   3.855
   4.00000   4.00000   4.00000
