Pre-built TIP4P water box, 2197 mols, 4.0nm
 8788
    1SOL  OW       1   0.176   0.149   0.183
    1SOL  HW1      2   0.121   0.143   0.104
    1SOL  HW2      3   0.121   0.196   0.246
    1SOL  MW       4   0.162   0.154   0.181
    2SOL  OW       5   0.170   0.121   0.500
    2SOL  HW1      6   0.172   0.043   0.554
    2SOL  HW2      7   0.167   0.088   0.410
    2SOL  MW       8   0.170   0.107   0.495
    3SOL  OW       9   0.175   0.177   0.739
    3SOL  HW1     10   0.253   0.125   0.719
    3SOL  HW2     11   0.164   0.235   0.665
    3SOL  MW      12   0.183   0.178   0.727
    4SOL  OW      13   0.150   0.144   1.111
    4SOL  HW1     14   0.150   0.048   1.114
    4SOL  HW2     15   0.158   0.165   1.018
    4SOL  MW      16   0.151   0.134   1.099
    5SOL  OW      17   0.165   0.180   1.380
    5SOL  HW1     18   0.223   0.214   1.449
    5SOL  HW2     19   0.195   0.090   1.366
    5SOL  MW      20   0.177   0.173   1.387
    6SOL  OW      21   0.132   0.158   1.657
    6SOL  HW1     22   0.115   0.064   1.664
    6SOL  HW2     23   0.076   0.187   1.585
    6SOL  MW      24   0.123   0.150   1.649
    7SOL  OW      25   0.180   0.164   2.021
    7SOL  HW1     26   0.178   0.144   2.114
    7SOL  HW2     27   0.189   0.079   1.978
    7SOL  MW      28   0.181   0.151   2.027
    8SOL  OW      29   0.142   0.192   2.339
    8SOL  HW1     30   0.065   0.218   2.289
    8SOL  HW2     31   0.215   0.238   2.298
    8SOL  MW      32   0.142   0.201   2.327
    9SOL  OW      33   0.176   0.129   2.613
    9SOL  HW1     34   0.241   0.128   2.543
    9SOL  HW2     35   0.193   0.049   2.662
    9SOL  MW      36   0.187   0.119   2.610
   10SOL  OW      37   0.117   0.126   2.938
   10SOL  HW1     38   0.137   0.153   2.848
   10SOL  HW2     39   0.201   0.096   2.973
   10SOL  MW      40   0.131   0.126   2.931
   11SOL  OW      41   0.173   0.191   3.217
   11SOL  HW1     42   0.222   0.130   3.162
   11SOL  HW2     43   0.137   0.255   3.155
   11SOL  MW      44   0.175   0.191   3.202
   12SOL  OW      45   0.143   0.151   3.514
   12SOL  HW1     46   0.102   0.066   3.528
   12SOL  HW2     47   0.190   0.170   3.595
   12SOL  MW      48   0.144   0.143   3.526
   13SOL  OW      49   0.124   0.152   3.824
   13SOL  HW1     50   0.143   0.167   3.732
   13SOL  HW2     51   0.059   0.218   3.847
   13SOL  MW      52   0.118   0.162   3.815
   14SOL  OW      53   0.167   0.457   0.180
   14SOL  HW1     54   0.159   0.399   0.104
   14SOL  HW2     55   0.126   0.539   0.154
   14SOL  MW      56   0.161   0.460   0.167
   15SOL  OW      57   0.170   0.447   0.488
   15SOL  HW1     58   0.174   0.452   0.584
   15SOL  HW2     59   0.121   0.524   0.461
   15SOL  MW      60   0.164   0.457   0.497
   16SOL  OW      61   0.178   0.453   0.752
   16SOL  HW1     62   0.251   0.407   0.709
   16SOL  HW2     63   0.180   0.421   0.843
   16SOL  MW      64   0.188   0.443   0.758
   17SOL  OW      65   0.168   0.433   1.053
   17SOL  HW1     66   0.113   0.417   0.976
   17SOL  HW2     67   0.247   0.475   1.018
   17SOL  MW      68   0.171   0.436   1.039
   18SOL  OW      69   0.114   0.484   1.398
   18SOL  HW1     70   0.137   0.424   1.327
   18SOL  HW2     71   0.199   0.515   1.431
   18SOL  MW      72   0.128   0.481   1.393
   19SOL  OW      73   0.170   0.484   1.689
   19SOL  HW1     74   0.255   0.495   1.645
   19SOL  HW2     75   0.121   0.424   1.633
   19SOL  MW      76   0.175   0.478   1.676
   20SOL  OW      77   0.159   0.433   1.969
   20SOL  HW1     78   0.109   0.427   1.888
   20SOL  HW2     79   0.155   0.345   2.006
   20SOL  MW      80   0.152   0.421   1.964
   21SOL  OW      81   0.167   0.459   2.313
   21SOL  HW1     82   0.089   0.405   2.322
   21SOL  HW2     83   0.238   0.403   2.344
   21SOL  MW      84   0.166   0.445   2.318
   22SOL  OW      85   0.175   0.472   2.620
   22SOL  HW1     86   0.230   0.526   2.562
   22SOL  HW2     87   0.105   0.531   2.648
   22SOL  MW      88   0.173   0.487   2.616
   23SOL  OW      89   0.159   0.446   2.886
   23SOL  HW1     90   0.086   0.436   2.948
   23SOL  HW2     91   0.206   0.363   2.891
   23SOL  MW      92   0.155   0.434   2.894
   24SOL  OW      93   0.149   0.439   3.223
   24SOL  HW1     94   0.119   0.479   3.305
   24SOL  HW2     95   0.244   0.436   3.232
   24SOL  MW      96   0.157   0.443   3.235
   25SOL  OW      97   0.182   0.440   3.503
   25SOL  HW1     98   0.161   0.445   3.410
   25SOL  HW2     99   0.121   0.376   3.539
   25SOL  MW     100   0.172   0.433   3.496
   26SOL  OW     101   0.136   0.445   3.859
   26SOL  HW1    102   0.088   0.398   3.927
   26SOL  HW2    103   0.075   0.451   3.786
   26SOL  MW     104   0.122   0.440   3.858
   27SOL  OW     105   0.158   0.792   0.167
   27SOL  HW1    106   0.078   0.777   0.217
   27SOL  HW2    107   0.145   0.743   0.086
   27SOL  MW     108   0.146   0.784   0.163
   28SOL  OW     109   0.146   0.794   0.435
   28SOL  HW1    110   0.174   0.845   0.359
   28SOL  HW2    111   0.111   0.859   0.496
   28SOL  MW     112   0.145   0.809   0.433
   29SOL  OW     113   0.116   0.736   0.787
   29SOL  HW1    114   0.193   0.747   0.732
   29SOL  HW2    115   0.126   0.650   0.827
   29SOL  MW     116   0.127   0.727   0.785
   30SOL  OW     117   0.151   0.742   1.077
   30SOL  HW1    118   0.123   0.682   1.008
   30SOL  HW2    119   0.204   0.689   1.136
   30SOL  MW     120   0.154   0.728   1.076
   31SOL  OW     121   0.126   0.785   1.380
   31SOL  HW1    122   0.106   0.709   1.325
   31SOL  HW2    123   0.071   0.773   1.458
   31SOL  MW     124   0.116   0.774   1.383
   32SOL  OW     125   0.144   0.753   1.703
   32SOL  HW1    126   0.204   0.815   1.660
   32SOL  HW2    127   0.195   0.673   1.711
   32SOL  MW     128   0.158   0.751   1.698
   33SOL  OW     129   0.143   0.736   1.969
   33SOL  HW1    130   0.049   0.742   1.988
   33SOL  HW2    131   0.160   0.642   1.965
   33SOL  MW     132   0.133   0.725   1.971
   34SOL  OW     133   0.191   0.802   2.324
   34SOL  HW1    134   0.130   0.806   2.250
   34SOL  HW2    135   0.268   0.850   2.294
   34SOL  MW     136   0.193   0.809   2.310
   35SOL  OW     137   0.135   0.807   2.638
   35SOL  HW1    138   0.070   0.792   2.707
   35SOL  HW2    139   0.094   0.773   2.558
   35SOL  MW     140   0.122   0.801   2.636
   36SOL  OW     141   0.171   0.765   2.905
   36SOL  HW1    142   0.164   0.744   2.812
   36SOL  HW2    143   0.243   0.828   2.910
   36SOL  MW     144   0.179   0.771   2.894
   37SOL  OW     145   0.122   0.801   3.227
   37SOL  HW1    146   0.165   0.840   3.151
   37SOL  HW2    147   0.044   0.855   3.241
   37SOL  MW     148   0.117   0.813   3.219
   38SOL  OW     149   0.130   0.754   3.545
   38SOL  HW1    150   0.051   0.711   3.513
   38SOL  HW2    151   0.199   0.721   3.488
   38SOL  MW     152   0.129   0.744   3.533
   39SOL  OW     153   0.128   0.798   3.867
   39SOL  HW1    154   0.203   0.829   3.817
   39SOL  HW2    155   0.056   0.854   3.839
   39SOL  MW     156   0.128   0.809   3.857
   40SOL  OW     157   0.171   1.071   0.164
   40SOL  HW1    158   0.085   1.112   0.169
   40SOL  HW2    159   0.205   1.098   0.078
   40SOL  MW     160   0.165   1.080   0.154
   41SOL  OW     161   0.161   1.089   0.428
   41SOL  HW1    162   0.102   1.109   0.355
   41SOL  HW2    163   0.134   1.002   0.457
   41SOL  MW     164   0.150   1.080   0.423
   42SOL  OW     165   0.147   1.040   0.769
   42SOL  HW1    166   0.083   1.110   0.753
   42SOL  HW2    167   0.150   1.031   0.864
   42SOL  MW     168   0.139   1.048   0.779
   43SOL  OW     169   0.140   1.048   1.045
   43SOL  HW1    170   0.059   1.082   1.083
   43SOL  HW2    171   0.126   0.954   1.037
   43SOL  MW     172   0.128   1.041   1.049
   44SOL  OW     173   0.161   1.051   1.419
   44SOL  HW1    174   0.253   1.061   1.440
   44SOL  HW2    175   0.139   1.129   1.368
   44SOL  MW     176   0.170   1.062   1.415
   45SOL  OW     177   0.160   1.065   1.700
   45SOL  HW1    178   0.168   0.978   1.739
   45SOL  HW2    179   0.237   1.072   1.643
   45SOL  MW     180   0.171   1.054   1.697
   46SOL  OW     181   0.116   1.114   1.999
   46SOL  HW1    182   0.120   1.096   1.905
   46SOL  HW2    183   0.133   1.029   2.040
   46SOL  MW     184   0.119   1.101   1.992
   47SOL  OW     185   0.176   1.044   2.307
   47SOL  HW1    186   0.213   1.130   2.327
   47SOL  HW2    187   0.096   1.039   2.358
   47SOL  MW     188   0.171   1.054   2.316
   48SOL  OW     189   0.153   1.112   2.621
   48SOL  HW1    190   0.174   1.050   2.691
   48SOL  HW2    191   0.057   1.116   2.620
   48SOL  MW     192   0.144   1.105   2.630
   49SOL  OW     193   0.152   1.058   2.910
   49SOL  HW1    194   0.094   1.095   2.842
   49SOL  HW2    195   0.205   0.994   2.863
   49SOL  MW     196   0.151   1.055   2.895
   50SOL  OW     197   0.155   1.072   3.192
   50SOL  HW1    198   0.100   1.121   3.131
   50SOL  HW2    199   0.104   0.994   3.214
   50SOL  MW     200   0.142   1.068   3.187
   51SOL  OW     201   0.180   1.109   3.510
   51SOL  HW1    202   0.155   1.187   3.460
   51SOL  HW2    203   0.248   1.067   3.456
   51SOL  MW     204   0.185   1.113   3.496
   52SOL  OW     205   0.158   1.046   3.860
   52SOL  HW1    206   0.108   1.016   3.784
   52SOL  HW2    207   0.248   1.017   3.842
   52SOL  MW     208   0.163   1.038   3.848
   53SOL  OW     209   0.136   1.397   0.172
   53SOL  HW1    210   0.155   1.453   0.096
   53SOL  HW2    211   0.099   1.457   0.237
   53SOL  MW     212   0.134   1.412   0.171
   54SOL  OW     213   0.175   1.353   0.495
   54SOL  HW1    214   0.190   1.337   0.402
   54SOL  HW2    215   0.172   1.266   0.534
   54SOL  MW     216   0.177   1.340   0.488
   55SOL  OW     217   0.132   1.348   0.774
   55SOL  HW1    218   0.154   1.259   0.803
   55SOL  HW2    219   0.048   1.338   0.730
   55SOL  MW     220   0.124   1.335   0.772
   56SOL  OW     221   0.144   1.411   1.102
   56SOL  HW1    222   0.117   1.471   1.172
   56SOL  HW2    223   0.099   1.329   1.122
   56SOL  MW     224   0.134   1.408   1.113
   57SOL  OW     225   0.139   1.421   1.368
   57SOL  HW1    226   0.123   1.358   1.298
   57SOL  HW2    227   0.203   1.482   1.331
   57SOL  MW     228   0.145   1.421   1.354
   58SOL  OW     229   0.155   1.365   1.727
   58SOL  HW1    230   0.113   1.356   1.813
   58SOL  HW2    231   0.139   1.282   1.684
   58SOL  MW     232   0.148   1.353   1.733
   59SOL  OW     233   0.127   1.348   1.995
   59SOL  HW1    234   0.145   1.429   2.042
   59SOL  HW2    235   0.040   1.322   2.025
   59SOL  MW     236   0.118   1.355   2.005
   60SOL  OW     237   0.193   1.416   2.328
   60SOL  HW1    238   0.111   1.426   2.375
   60SOL  HW2    239   0.172   1.358   2.255
   60SOL  MW     240   0.180   1.410   2.324
   61SOL  OW     241   0.185   1.416   2.617
   61SOL  HW1    242   0.091   1.429   2.602
   61SOL  HW2    243   0.221   1.505   2.624
   61SOL  MW     244   0.178   1.429   2.616
   62SOL  OW     245   0.139   1.406   2.936
   62SOL  HW1    246   0.192   1.480   2.968
   62SOL  HW2    247   0.075   1.446   2.877
   62SOL  MW     248   0.138   1.421   2.933
   63SOL  OW     249   0.144   1.352   3.251
   63SOL  HW1    250   0.146   1.389   3.162
   63SOL  HW2    251   0.108   1.423   3.305
   63SOL  MW     252   0.139   1.366   3.246
   64SOL  OW     253   0.135   1.420   3.518
   64SOL  HW1    254   0.207   1.414   3.455
   64SOL  HW2    255   0.141   1.508   3.554
   64SOL  MW     256   0.145   1.430   3.514
   65SOL  OW     257   0.124   1.411   3.818
   65SOL  HW1    258   0.075   1.331   3.834
   65SOL  HW2    259   0.214   1.388   3.839
   65SOL  MW     260   0.129   1.398   3.823
   66SOL  OW     261   0.128   1.700   0.184
   66SOL  HW1    262   0.149   1.783   0.142
   66SOL  HW2    263   0.138   1.718   0.277
   66SOL  MW     264   0.132   1.713   0.190
   67SOL  OW     265   0.130   1.677   0.484
   67SOL  HW1    266   0.049   1.664   0.534
   67SOL  HW2    267   0.117   1.625   0.404
   67SOL  MW     268   0.118   1.669   0.480
   68SOL  OW     269   0.192   1.692   0.741
   68SOL  HW1    270   0.138   1.757   0.695
   68SOL  HW2    271   0.133   1.653   0.805
   68SOL  MW     272   0.177   1.696   0.743
   69SOL  OW     273   0.115   1.671   1.047
   69SOL  HW1    274   0.085   1.671   1.138
   69SOL  HW2    275   0.111   1.762   1.020
   69SOL  MW     276   0.111   1.682   1.056
   70SOL  OW     277   0.168   1.662   1.385
   70SOL  HW1    278   0.203   1.751   1.375
   70SOL  HW2    279   0.104   1.654   1.315
   70SOL  MW     280   0.164   1.672   1.375
   71SOL  OW     281   0.169   1.699   1.668
   71SOL  HW1    282   0.147   1.777   1.719
   71SOL  HW2    283   0.091   1.681   1.616
   71SOL  MW     284   0.157   1.707   1.668
   72SOL  OW     285   0.178   1.710   2.019
   72SOL  HW1    286   0.085   1.717   2.041
   72SOL  HW2    287   0.206   1.628   2.062
   72SOL  MW     288   0.170   1.700   2.027
   73SOL  OW     289   0.124   1.662   2.342
   73SOL  HW1    290   0.127   1.612   2.260
   73SOL  HW2    291   0.086   1.602   2.406
   73SOL  MW     292   0.120   1.648   2.340
   74SOL  OW     293   0.146   1.676   2.614
   74SOL  HW1    294   0.196   1.602   2.648
   74SOL  HW2    295   0.187   1.698   2.531
   74SOL  MW     296   0.157   1.670   2.608
   75SOL  OW     297   0.167   1.729   2.906
   75SOL  HW1    298   0.224   1.699   2.977
   75SOL  HW2    299   0.182   1.666   2.835
   75SOL  MW     300   0.176   1.717   2.906
   76SOL  OW     301   0.188   1.654   3.235
   76SOL  HW1    302   0.093   1.666   3.240
   76SOL  HW2    303   0.214   1.703   3.157
   76SOL  MW     304   0.179   1.662   3.226
   77SOL  OW     305   0.165   1.661   3.510
   77SOL  HW1    306   0.220   1.584   3.500
   77SOL  HW2    307   0.087   1.629   3.556
   77SOL  MW     308   0.162   1.647   3.514
   78SOL  OW     309   0.147   1.730   3.854
   78SOL  HW1    310   0.214   1.715   3.787
   78SOL  HW2    311   0.083   1.787   3.811
   78SOL  MW     312   0.148   1.735   3.840
   79SOL  OW     313   0.188   2.024   0.151
   79SOL  HW1    314   0.158   1.968   0.080
   79SOL  HW2    315   0.209   2.108   0.108
   79SOL  MW     316   0.187   2.028   0.137
   80SOL  OW     317   0.177   1.961   0.430
   80SOL  HW1    318   0.198   2.049   0.461
   80SOL  HW2    319   0.086   1.948   0.456
   80SOL  MW     320   0.168   1.971   0.438
   81SOL  OW     321   0.180   2.024   0.748
   81SOL  HW1    322   0.095   2.006   0.709
   81SOL  HW2    323   0.196   2.116   0.730
   81SOL  MW     324   0.171   2.033   0.741
   82SOL  OW     325   0.156   2.008   1.106
   82SOL  HW1    326   0.134   2.099   1.086
   82SOL  HW2    327   0.229   1.988   1.048
   82SOL  MW     328   0.163   2.017   1.096
   83SOL  OW     329   0.162   1.993   1.375
   83SOL  HW1    330   0.078   1.987   1.419
   83SOL  HW2    331   0.224   2.019   1.443
   83SOL  MW     332   0.159   1.996   1.389
   84SOL  OW     333   0.148   2.012   1.722
   84SOL  HW1    334   0.071   2.049   1.765
   84SOL  HW2    335   0.203   1.982   1.794
   84SOL  MW     336   0.145   2.013   1.736
   85SOL  OW     337   0.150   1.980   1.979
   85SOL  HW1    338   0.157   2.063   2.026
   85SOL  HW2    339   0.240   1.958   1.955
   85SOL  MW     340   0.163   1.988   1.982
   86SOL  OW     341   0.174   2.025   2.276
   86SOL  HW1    342   0.246   2.035   2.338
   86SOL  HW2    343   0.215   1.995   2.195
   86SOL  MW     344   0.188   2.023   2.274
   87SOL  OW     345   0.119   2.008   2.587
   87SOL  HW1    346   0.083   2.067   2.652
   87SOL  HW2    347   0.151   1.933   2.638
   87SOL  MW     348   0.119   2.006   2.602
   88SOL  OW     349   0.180   1.985   2.895
   88SOL  HW1    350   0.101   1.955   2.941
   88SOL  HW2    351   0.147   2.044   2.827
   88SOL  MW     352   0.166   1.989   2.892
   89SOL  OW     353   0.188   1.973   3.214
   89SOL  HW1    354   0.279   1.987   3.239
   89SOL  HW2    355   0.181   2.011   3.126
   89SOL  MW     356   0.198   1.980   3.206
   90SOL  OW     357   0.126   1.969   3.500
   90SOL  HW1    358   0.222   1.964   3.502
   90SOL  HW2    359   0.103   1.959   3.408
   90SOL  MW     360   0.135   1.967   3.489
   91SOL  OW     361   0.118   1.974   3.810
   91SOL  HW1    362   0.040   1.919   3.800
   91SOL  HW2    363   0.160   1.974   3.724
   91SOL  MW     364   0.114   1.967   3.798
   92SOL  OW     365   0.161   2.322   0.145
   92SOL  HW1    366   0.226   2.388   0.120
   92SOL  HW2    367   0.077   2.366   0.136
   92SOL  MW     368   0.159   2.336   0.141
   93SOL  OW     369   0.139   2.308   0.492
   93SOL  HW1    370   0.090   2.227   0.481
   93SOL  HW2    371   0.219   2.281   0.537
   93SOL  MW     372   0.143   2.294   0.496
   94SOL  OW     373   0.182   2.271   0.744
   94SOL  HW1    374   0.162   2.357   0.780
   94SOL  HW2    375   0.096   2.234   0.723
   94SOL  MW     376   0.168   2.277   0.746
   95SOL  OW     377   0.133   2.288   1.083
   95SOL  HW1    378   0.217   2.255   1.051
   95SOL  HW2    379   0.128   2.378   1.051
   95SOL  MW     380   0.143   2.295   1.074
   96SOL  OW     381   0.147   2.272   1.375
   96SOL  HW1    382   0.120   2.235   1.290
   96SOL  HW2    383   0.193   2.200   1.418
   96SOL  MW     384   0.149   2.258   1.369
   97SOL  OW     385   0.156   2.276   1.719
   97SOL  HW1    386   0.106   2.268   1.638
   97SOL  HW2    387   0.242   2.239   1.698
   97SOL  MW     388   0.160   2.270   1.706
   98SOL  OW     389   0.118   2.342   1.968
   98SOL  HW1    390   0.101   2.435   1.980
   98SOL  HW2    391   0.191   2.323   2.026
   98SOL  MW     392   0.125   2.351   1.977
   99SOL  OW     393   0.181   2.340   2.346
   99SOL  HW1    394   0.156   2.275   2.412
   99SOL  HW2    395   0.175   2.293   2.263
   99SOL  MW     396   0.177   2.326   2.344
  100SOL  OW     397   0.178   2.330   2.627
  100SOL  HW1    398   0.176   2.419   2.591
  100SOL  HW2    399   0.109   2.329   2.693
  100SOL  MW     400   0.169   2.341   2.631
  101SOL  OW     401   0.176   2.278   2.926
  101SOL  HW1    402   0.251   2.336   2.911
  101SOL  HW2    403   0.153   2.246   2.839
  101SOL  MW     404   0.183   2.282   2.913
  102SOL  OW     405   0.155   2.336   3.228
  102SOL  HW1    406   0.204   2.385   3.161
  102SOL  HW2    407   0.170   2.244   3.206
  102SOL  MW     408   0.163   2.331   3.217
  103SOL  OW     409   0.145   2.319   3.520
  103SOL  HW1    410   0.221   2.263   3.508
  103SOL  HW2    411   0.078   2.260   3.556
  103SOL  MW     412   0.146   2.304   3.523
  104SOL  OW     413   0.125   2.306   3.840
  104SOL  HW1    414   0.189   2.326   3.771
  104SOL  HW2    415   0.151   2.360   3.914
  104SOL  MW     416   0.137   2.315   3.840
  105SOL  OW     417   0.132   2.605   0.143
  105SOL  HW1    418   0.170   2.656   0.072
  105SOL  HW2    419   0.201   2.602   0.210
  105SOL  MW     420   0.146   2.611   0.142
  106SOL  OW     421   0.140   2.606   0.476
  106SOL  HW1    422   0.088   2.532   0.508
  106SOL  HW2    423   0.100   2.682   0.517
  106SOL  MW     424   0.128   2.606   0.486
  107SOL  OW     425   0.138   2.651   0.803
  107SOL  HW1    426   0.233   2.658   0.792
  107SOL  HW2    427   0.117   2.715   0.871
  107SOL  MW     428   0.147   2.660   0.810
  108SOL  OW     429   0.152   2.602   1.080
  108SOL  HW1    430   0.076   2.646   1.041
  108SOL  HW2    431   0.139   2.609   1.174
  108SOL  MW     432   0.141   2.608   1.087
  109SOL  OW     433   0.182   2.628   1.409
  109SOL  HW1    434   0.125   2.628   1.332
  109SOL  HW2    435   0.165   2.543   1.451
  109SOL  MW     436   0.172   2.617   1.404
  110SOL  OW     437   0.156   2.626   1.675
  110SOL  HW1    438   0.227   2.640   1.612
  110SOL  HW2    439   0.199   2.634   1.761
  110SOL  MW     440   0.171   2.629   1.678
  111SOL  OW     441   0.173   2.592   2.016
  111SOL  HW1    442   0.098   2.650   2.002
  111SOL  HW2    443   0.135   2.504   2.010
  111SOL  MW     444   0.158   2.588   2.013
  112SOL  OW     445   0.183   2.586   2.317
  112SOL  HW1    446   0.266   2.629   2.335
  112SOL  HW2    447   0.175   2.587   2.221
  112SOL  MW     448   0.192   2.592   2.307
  113SOL  OW     449   0.121   2.633   2.582
  113SOL  HW1    450   0.159   2.552   2.549
  113SOL  HW2    451   0.027   2.623   2.571
  113SOL  MW     452   0.114   2.622   2.576
  114SOL  OW     453   0.189   2.586   2.960
  114SOL  HW1    454   0.253   2.515   2.956
  114SOL  HW2    455   0.230   2.652   3.016
  114SOL  MW     456   0.202   2.586   2.966
  115SOL  OW     457   0.178   2.623   3.253
  115SOL  HW1    458   0.112   2.667   3.200
  115SOL  HW2    459   0.138   2.615   3.340
  115SOL  MW     460   0.164   2.628   3.258
  116SOL  OW     461   0.177   2.651   3.519
  116SOL  HW1    462   0.204   2.568   3.557
  116SOL  HW2    463   0.086   2.638   3.495
  116SOL  MW     464   0.169   2.639   3.521
  117SOL  OW     465   0.161   2.583   3.855
  117SOL  HW1    466   0.223   2.515   3.882
  117SOL  HW2    467   0.205   2.665   3.877
  117SOL  MW     468   0.175   2.585   3.862
  118SOL  OW     469   0.128   2.928   0.160
  118SOL  HW1    470   0.167   2.991   0.221
  118SOL  HW2    471   0.054   2.976   0.121
  118SOL  MW     472   0.123   2.942   0.163
  119SOL  OW     473   0.151   2.925   0.483
  119SOL  HW1    474   0.064   2.929   0.443
  119SOL  HW2    475   0.134   2.905   0.575
  119SOL  MW     476   0.138   2.923   0.489
  120SOL  OW     477   0.178   2.922   0.777
  120SOL  HW1    478   0.123   2.999   0.796
  120SOL  HW2    479   0.161   2.862   0.850
  120SOL  MW     480   0.169   2.924   0.789
  121SOL  OW     481   0.188   2.893   1.046
  121SOL  HW1    482   0.139   2.908   0.966
  121SOL  HW2    483   0.222   2.803   1.038
  121SOL  MW     484   0.186   2.883   1.035
  122SOL  OW     485   0.121   2.936   1.378
  122SOL  HW1    486   0.064   2.966   1.449
  122SOL  HW2    487   0.063   2.929   1.302
  122SOL  MW     488   0.106   2.939   1.377
  123SOL  OW     489   0.176   2.937   1.679
  123SOL  HW1    490   0.101   2.960   1.624
  123SOL  HW2    491   0.215   3.021   1.703
  123SOL  MW     492   0.171   2.951   1.675
  124SOL  OW     493   0.186   2.944   1.982
  124SOL  HW1    494   0.245   2.905   1.917
  124SOL  HW2    495   0.197   3.038   1.970
  124SOL  MW     496   0.195   2.951   1.972
  125SOL  OW     497   0.143   2.908   2.280
  125SOL  HW1    498   0.204   2.874   2.215
  125SOL  HW2    499   0.124   2.997   2.251
  125SOL  MW     500   0.148   2.915   2.268
  126SOL  OW     501   0.126   2.958   2.610
  126SOL  HW1    502   0.182   2.988   2.539
  126SOL  HW2    503   0.048   3.014   2.605
  126SOL  MW     504   0.123   2.969   2.601
  127SOL  OW     505   0.145   2.941   2.927
  127SOL  HW1    506   0.182   2.977   3.008
  127SOL  HW2    507   0.067   2.995   2.911
  127SOL  MW     508   0.139   2.953   2.936
  128SOL  OW     509   0.189   2.946   3.229
  128SOL  HW1    510   0.239   2.875   3.270
  128SOL  HW2    511   0.189   3.016   3.294
  128SOL  MW     512   0.195   2.945   3.243
  129SOL  OW     513   0.144   2.962   3.556
  129SOL  HW1    514   0.168   2.967   3.648
  129SOL  HW2    515   0.135   2.868   3.539
  129SOL  MW     516   0.146   2.951   3.566
  130SOL  OW     517   0.190   2.893   3.874
  130SOL  HW1    518   0.149   2.807   3.885
  130SOL  HW2    519   0.127   2.954   3.912
  130SOL  MW     520   0.177   2.889   3.880
  131SOL  OW     521   0.165   3.201   0.161
  131SOL  HW1    522   0.169   3.181   0.067
  131SOL  HW2    523   0.139   3.118   0.202
  131SOL  MW     524   0.162   3.187   0.154
  132SOL  OW     525   0.169   3.192   0.458
  132SOL  HW1    526   0.256   3.163   0.431
  132SOL  HW2    527   0.185   3.267   0.515
  132SOL  MW     528   0.182   3.198   0.462
  133SOL  OW     529   0.180   3.214   0.766
  133SOL  HW1    530   0.258   3.205   0.712
  133SOL  HW2    531   0.107   3.208   0.704
  133SOL  MW     532   0.181   3.212   0.751
  134SOL  OW     533   0.149   3.215   1.110
  134SOL  HW1    534   0.215   3.239   1.045
  134SOL  HW2    535   0.157   3.120   1.119
  134SOL  MW     536   0.159   3.206   1.103
  135SOL  OW     537   0.176   3.200   1.424
  135SOL  HW1    538   0.127   3.280   1.407
  135SOL  HW2    539   0.215   3.213   1.511
  135SOL  MW     540   0.175   3.212   1.433
  136SOL  OW     541   0.184   3.213   1.719
  136SOL  HW1    542   0.135   3.168   1.651
  136SOL  HW2    543   0.120   3.269   1.762
  136SOL  MW     544   0.170   3.215   1.716
  137SOL  OW     545   0.122   3.271   2.013
  137SOL  HW1    546   0.047   3.213   2.003
  137SOL  HW2    547   0.096   3.334   2.080
  137SOL  MW     548   0.109   3.271   2.021
  138SOL  OW     549   0.166   3.198   2.339
  138SOL  HW1    550   0.083   3.214   2.295
  138SOL  HW2    551   0.181   3.277   2.391
  138SOL  MW     552   0.157   3.210   2.340
  139SOL  OW     553   0.116   3.210   2.587
  139SOL  HW1    554   0.056   3.259   2.643
  139SOL  HW2    555   0.202   3.249   2.604
  139SOL  MW     556   0.119   3.221   2.596
  140SOL  OW     557   0.176   3.207   2.956
  140SOL  HW1    558   0.244   3.151   2.993
  140SOL  HW2    559   0.109   3.146   2.926
  140SOL  MW     560   0.176   3.192   2.957
  141SOL  OW     561   0.166   3.194   3.191
  141SOL  HW1    562   0.161   3.260   3.122
  141SOL  HW2    563   0.169   3.110   3.144
  141SOL  MW     564   0.166   3.191   3.176
  142SOL  OW     565   0.118   3.239   3.563
  142SOL  HW1    566   0.088   3.185   3.636
  142SOL  HW2    567   0.189   3.292   3.599
  142SOL  MW     568   0.123   3.239   3.577
  143SOL  OW     569   0.133   3.259   3.811
  143SOL  HW1    570   0.062   3.251   3.747
  143SOL  HW2    571   0.211   3.229   3.763
  143SOL  MW     572   0.134   3.254   3.797
  144SOL  OW     573   0.178   3.573   0.176
  144SOL  HW1    574   0.142   3.621   0.250
  144SOL  HW2    575   0.211   3.491   0.214
  144SOL  MW     576   0.178   3.568   0.190
  145SOL  OW     577   0.170   3.565   0.425
  145SOL  HW1    578   0.247   3.584   0.372
  145SOL  HW2    579   0.100   3.617   0.384
  145SOL  MW     580   0.171   3.574   0.413
  146SOL  OW     581   0.130   3.508   0.770
  146SOL  HW1    582   0.161   3.564   0.698
  146SOL  HW2    583   0.039   3.536   0.783
  146SOL  MW     584   0.122   3.519   0.762
  147SOL  OW     585   0.173   3.549   1.105
  147SOL  HW1    586   0.135   3.480   1.051
  147SOL  HW2    587   0.207   3.612   1.042
  147SOL  MW     588   0.173   3.548   1.090
  148SOL  OW     589   0.126   3.557   1.360
  148SOL  HW1    590   0.221   3.572   1.359
  148SOL  HW2    591   0.107   3.523   1.273
  148SOL  MW     592   0.136   3.555   1.349
  149SOL  OW     593   0.136   3.555   1.731
  149SOL  HW1    594   0.157   3.542   1.638
  149SOL  HW2    595   0.064   3.619   1.730
  149SOL  MW     596   0.129   3.562   1.719
  150SOL  OW     597   0.163   3.503   2.009
  150SOL  HW1    598   0.077   3.465   2.026
  150SOL  HW2    599   0.209   3.495   2.093
  150SOL  MW     600   0.158   3.497   2.022
  151SOL  OW     601   0.117   3.569   2.324
  151SOL  HW1    602   0.210   3.546   2.318
  151SOL  HW2    603   0.086   3.571   2.234
  151SOL  MW     604   0.125   3.566   2.312
  152SOL  OW     605   0.128   3.506   2.590
  152SOL  HW1    606   0.079   3.543   2.664
  152SOL  HW2    607   0.165   3.425   2.625
  152SOL  MW     608   0.126   3.500   2.604
  153SOL  OW     609   0.192   3.535   2.946
  153SOL  HW1    610   0.252   3.544   3.020
  153SOL  HW2    611   0.237   3.580   2.874
  153SOL  MW     612   0.206   3.542   2.946
  154SOL  OW     613   0.165   3.544   3.202
  154SOL  HW1    614   0.104   3.472   3.216
  154SOL  HW2    615   0.214   3.520   3.124
  154SOL  MW     616   0.163   3.532   3.194
  155SOL  OW     617   0.190   3.523   3.545
  155SOL  HW1    618   0.273   3.568   3.534
  155SOL  HW2    619   0.139   3.547   3.467
  155SOL  MW     620   0.194   3.532   3.533
  156SOL  OW     621   0.170   3.550   3.881
  156SOL  HW1    622   0.119   3.593   3.813
  156SOL  HW2    623   0.157   3.457   3.866
  156SOL  MW     624   0.162   3.544   3.871
  157SOL  OW     625   0.126   3.847   0.146
  157SOL  HW1    626   0.089   3.929   0.112
  157SOL  HW2    627   0.211   3.839   0.103
  157SOL  MW     628   0.132   3.856   0.136
  158SOL  OW     629   0.152   3.816   0.432
  158SOL  HW1    630   0.233   3.773   0.406
  158SOL  HW2    631   0.126   3.867   0.355
  158SOL  MW     632   0.159   3.817   0.419
  159SOL  OW     633   0.136   3.831   0.763
  159SOL  HW1    634   0.104   3.741   0.767
  159SOL  HW2    635   0.071   3.882   0.811
  159SOL  MW     636   0.124   3.826   0.770
  160SOL  OW     637   0.163   3.857   1.070
  160SOL  HW1    638   0.233   3.912   1.035
  160SOL  HW2    639   0.140   3.897   1.154
  160SOL  MW     640   0.169   3.869   1.076
  161SOL  OW     641   0.147   3.824   1.392
  161SOL  HW1    642   0.179   3.741   1.356
  161SOL  HW2    643   0.220   3.884   1.382
  161SOL  MW     644   0.160   3.821   1.386
  162SOL  OW     645   0.139   3.809   1.686
  162SOL  HW1    646   0.081   3.780   1.756
  162SOL  HW2    647   0.086   3.804   1.607
  162SOL  MW     648   0.125   3.805   1.685
  163SOL  OW     649   0.152   3.824   2.006
  163SOL  HW1    650   0.224   3.800   1.948
  163SOL  HW2    651   0.077   3.774   1.974
  163SOL  MW     652   0.151   3.815   1.994
  164SOL  OW     653   0.159   3.862   2.320
  164SOL  HW1    654   0.081   3.809   2.306
  164SOL  HW2    655   0.157   3.884   2.413
  164SOL  MW     656   0.149   3.858   2.330
  165SOL  OW     657   0.166   3.831   2.638
  165SOL  HW1    658   0.241   3.815   2.581
  165SOL  HW2    659   0.200   3.819   2.727
  165SOL  MW     660   0.180   3.828   2.642
  166SOL  OW     661   0.158   3.841   2.933
  166SOL  HW1    662   0.073   3.811   2.968
  166SOL  HW2    663   0.138   3.873   2.845
  166SOL  MW     664   0.144   3.841   2.926
  167SOL  OW     665   0.143   3.847   3.250
  167SOL  HW1    666   0.225   3.814   3.214
  167SOL  HW2    667   0.164   3.935   3.281
  167SOL  MW     668   0.156   3.854   3.249
  168SOL  OW     669   0.185   3.880   3.539
  168SOL  HW1    670   0.094   3.864   3.513
  168SOL  HW2    671   0.191   3.844   3.627
  168SOL  MW     672   0.174   3.873   3.547
  169SOL  OW     673   0.155   3.870   3.831
  169SOL  HW1    674   0.220   3.837   3.894
  169SOL  HW2    675   0.208   3.913   3.764
  169SOL  MW     676   0.170   3.871   3.831
  170SOL  OW     677   0.489   0.153   0.123
  170SOL  HW1    678   0.559   0.106   0.079
  170SOL  HW2    679   0.442   0.198   0.053
  170SOL  MW     680   0.492   0.153   0.108
  171SOL  OW     681   0.427   0.181   0.426
  171SOL  HW1    682   0.478   0.253   0.463
  171SOL  HW2    683   0.492   0.114   0.406
  171SOL  MW     684   0.442   0.182   0.428
  172SOL  OW     685   0.444   0.141   0.743
  172SOL  HW1    686   0.421   0.089   0.665
  172SOL  HW2    687   0.515   0.198   0.714
  172SOL  MW     688   0.450   0.141   0.729
  173SOL  OW     689   0.447   0.173   1.038
  173SOL  HW1    690   0.374   0.223   1.076
  173SOL  HW2    691   0.473   0.225   0.962
  173SOL  MW     692   0.441   0.186   1.033
  174SOL  OW     693   0.488   0.182   1.374
  174SOL  HW1    694   0.438   0.124   1.317
  174SOL  HW2    695   0.507   0.129   1.452
  174SOL  MW     696   0.484   0.168   1.377
  175SOL  OW     697   0.434   0.162   1.662
  175SOL  HW1    698   0.360   0.223   1.662
  175SOL  HW2    699   0.489   0.192   1.734
  175SOL  MW     700   0.432   0.174   1.671
  176SOL  OW     701   0.451   0.191   2.040
  176SOL  HW1    702   0.461   0.216   2.131
  176SOL  HW2    703   0.513   0.245   1.992
  176SOL  MW     704   0.460   0.201   2.045
  177SOL  OW     705   0.483   0.139   2.323
  177SOL  HW1    706   0.392   0.111   2.314
  177SOL  HW2    707   0.481   0.233   2.308
  177SOL  MW     708   0.471   0.147   2.320
  178SOL  OW     709   0.478   0.145   2.627
  178SOL  HW1    710   0.463   0.164   2.719
  178SOL  HW2    711   0.471   0.050   2.620
  178SOL  MW     712   0.475   0.135   2.638
  179SOL  OW     713   0.422   0.131   2.925
  179SOL  HW1    714   0.348   0.070   2.922
  179SOL  HW2    715   0.495   0.082   2.886
  179SOL  MW     716   0.422   0.117   2.920
  180SOL  OW     717   0.435   0.127   3.258
  180SOL  HW1    718   0.341   0.148   3.256
  180SOL  HW2    719   0.441   0.042   3.213
  180SOL  MW     720   0.424   0.119   3.252
  181SOL  OW     721   0.501   0.158   3.566
  181SOL  HW1    722   0.478   0.249   3.546
  181SOL  HW2    723   0.455   0.107   3.498
  181SOL  MW     724   0.492   0.163   3.555
  182SOL  OW     725   0.501   0.125   3.842
  182SOL  HW1    726   0.515   0.184   3.916
  182SOL  HW2    727   0.589   0.106   3.809
  182SOL  MW     728   0.514   0.130   3.847
  183SOL  OW     729   0.453   0.428   0.174
  183SOL  HW1    730   0.484   0.467   0.256
  183SOL  HW2    731   0.528   0.377   0.142
  183SOL  MW     732   0.466   0.426   0.181
  184SOL  OW     733   0.456   0.459   0.434
  184SOL  HW1    734   0.490   0.538   0.390
  184SOL  HW2    735   0.473   0.474   0.527
  184SOL  MW     736   0.463   0.471   0.440
  185SOL  OW     737   0.436   0.494   0.733
  185SOL  HW1    738   0.479   0.409   0.721
  185SOL  HW2    739   0.440   0.510   0.827
  185SOL  MW     740   0.442   0.485   0.743
  186SOL  OW     741   0.440   0.445   1.076
  186SOL  HW1    742   0.521   0.484   1.043
  186SOL  HW2    743   0.443   0.459   1.171
  186SOL  MW     744   0.451   0.452   1.084
  187SOL  OW     745   0.468   0.461   1.351
  187SOL  HW1    746   0.435   0.519   1.283
  187SOL  HW2    747   0.433   0.496   1.433
  187SOL  MW     748   0.460   0.473   1.353
  188SOL  OW     749   0.441   0.489   1.703
  188SOL  HW1    750   0.468   0.420   1.643
  188SOL  HW2    751   0.414   0.442   1.782
  188SOL  MW     752   0.441   0.474   1.706
  189SOL  OW     753   0.473   0.475   2.021
  189SOL  HW1    754   0.415   0.405   2.048
  189SOL  HW2    755   0.450   0.549   2.078
  189SOL  MW     756   0.463   0.476   2.032
  190SOL  OW     757   0.426   0.451   2.311
  190SOL  HW1    758   0.420   0.384   2.243
  190SOL  HW2    759   0.514   0.487   2.301
  190SOL  MW     760   0.437   0.447   2.301
  191SOL  OW     761   0.449   0.489   2.614
  191SOL  HW1    762   0.449   0.561   2.551
  191SOL  HW2    763   0.485   0.527   2.694
  191SOL  MW     764   0.453   0.503   2.616
  192SOL  OW     765   0.483   0.490   2.923
  192SOL  HW1    766   0.450   0.455   2.841
  192SOL  HW2    767   0.468   0.420   2.987
  192SOL  MW     768   0.477   0.476   2.921
  193SOL  OW     769   0.494   0.469   3.259
  193SOL  HW1    770   0.573   0.520   3.273
  193SOL  HW2    771   0.526   0.378   3.253
  193SOL  MW     772   0.508   0.464   3.260
  194SOL  OW     773   0.449   0.461   3.541
  194SOL  HW1    774   0.454   0.527   3.471
  194SOL  HW2    775   0.441   0.513   3.621
  194SOL  MW     776   0.448   0.476   3.542
  195SOL  OW     777   0.430   0.453   3.880
  195SOL  HW1    778   0.339   0.426   3.866
  195SOL  HW2    779   0.430   0.547   3.860
  195SOL  MW     780   0.418   0.462   3.875
  196SOL  OW     781   0.472   0.743   0.141
  196SOL  HW1    782   0.557   0.748   0.185
  196SOL  HW2    783   0.412   0.710   0.208
  196SOL  MW     784   0.475   0.740   0.155
  197SOL  OW     785   0.437   0.731   0.496
  197SOL  HW1    786   0.527   0.699   0.493
  197SOL  HW2    787   0.438   0.810   0.442
  197SOL  MW     788   0.449   0.737   0.489
  198SOL  OW     789   0.457   0.754   0.777
  198SOL  HW1    790   0.372   0.714   0.790
  198SOL  HW2    791   0.439   0.835   0.731
  198SOL  MW     792   0.444   0.759   0.773
  199SOL  OW     793   0.422   0.751   1.093
  199SOL  HW1    794   0.498   0.800   1.124
  199SOL  HW2    795   0.405   0.787   1.006
  199SOL  MW     796   0.430   0.762   1.086
  200SOL  OW     797   0.472   0.808   1.394
  200SOL  HW1    798   0.484   0.713   1.401
  200SOL  HW2    799   0.555   0.845   1.425
  200SOL  MW     800   0.484   0.800   1.399
  201SOL  OW     801   0.460   0.790   1.725
  201SOL  HW1    802   0.527   0.723   1.734
  201SOL  HW2    803   0.508   0.873   1.727
  201SOL  MW     804   0.475   0.792   1.726
  202SOL  OW     805   0.479   0.806   2.023
  202SOL  HW1    806   0.519   0.764   2.099
  202SOL  HW2    807   0.393   0.834   2.053
  202SOL  MW     808   0.473   0.805   2.036
  203SOL  OW     809   0.491   0.738   2.326
  203SOL  HW1    810   0.416   0.695   2.286
  203SOL  HW2    811   0.495   0.702   2.415
  203SOL  MW     812   0.482   0.728   2.332
  204SOL  OW     813   0.457   0.773   2.628
  204SOL  HW1    814   0.444   0.867   2.612
  204SOL  HW2    815   0.549   0.758   2.607
  204SOL  MW     816   0.467   0.784   2.623
  205SOL  OW     817   0.499   0.808   2.906
  205SOL  HW1    818   0.432   0.767   2.961
  205SOL  HW2    819   0.553   0.735   2.876
  205SOL  MW     820   0.497   0.793   2.909
  206SOL  OW     821   0.480   0.789   3.218
  206SOL  HW1    822   0.424   0.861   3.191
  206SOL  HW2    823   0.524   0.762   3.138
  206SOL  MW     824   0.479   0.795   3.205
  207SOL  OW     825   0.431   0.733   3.561
  207SOL  HW1    826   0.377   0.764   3.489
  207SOL  HW2    827   0.404   0.785   3.636
  207SOL  MW     828   0.421   0.743   3.561
  208SOL  OW     829   0.461   0.808   3.843
  208SOL  HW1    830   0.384   0.821   3.787
  208SOL  HW2    831   0.441   0.857   3.923
  208SOL  MW     832   0.448   0.816   3.846
  209SOL  OW     833   0.500   1.070   0.177
  209SOL  HW1    834   0.519   0.988   0.131
  209SOL  HW2    835   0.525   1.053   0.268
  209SOL  MW     836   0.506   1.057   0.183
  210SOL  OW     837   0.428   1.081   0.486
  210SOL  HW1    838   0.516   1.113   0.509
  210SOL  HW2    839   0.433   1.065   0.392
  210SOL  MW     840   0.440   1.083   0.477
  211SOL  OW     841   0.496   1.103   0.732
  211SOL  HW1    842   0.564   1.132   0.792
  211SOL  HW2    843   0.538   1.036   0.678
  211SOL  MW     844   0.510   1.098   0.733
  212SOL  OW     845   0.451   1.041   1.046
  212SOL  HW1    846   0.372   1.003   1.007
  212SOL  HW2    847   0.470   1.118   0.992
  212SOL  MW     848   0.444   1.046   1.034
  213SOL  OW     849   0.476   1.094   1.407
  213SOL  HW1    850   0.483   1.181   1.366
  213SOL  HW2    851   0.552   1.046   1.375
  213SOL  MW     852   0.486   1.099   1.397
  214SOL  OW     853   0.491   1.096   1.716
  214SOL  HW1    854   0.566   1.148   1.743
  214SOL  HW2    855   0.507   1.076   1.624
  214SOL  MW     856   0.503   1.100   1.708
  215SOL  OW     857   0.425   1.056   2.010
  215SOL  HW1    858   0.467   1.118   1.950
  215SOL  HW2    859   0.466   1.074   2.095
  215SOL  MW     860   0.436   1.066   2.013
  216SOL  OW     861   0.490   1.037   2.309
  216SOL  HW1    862   0.581   1.017   2.332
  216SOL  HW2    863   0.485   1.133   2.315
  216SOL  MW     864   0.501   1.047   2.313
  217SOL  OW     865   0.476   1.039   2.607
  217SOL  HW1    866   0.426   1.027   2.688
  217SOL  HW2    867   0.430   0.985   2.543
  217SOL  MW     868   0.464   1.031   2.610
  218SOL  OW     869   0.493   1.091   2.902
  218SOL  HW1    870   0.481   1.171   2.952
  218SOL  HW2    871   0.419   1.036   2.927
  218SOL  MW     872   0.482   1.094   2.912
  219SOL  OW     873   0.490   1.065   3.259
  219SOL  HW1    874   0.516   1.079   3.350
  219SOL  HW2    875   0.458   0.975   3.257
  219SOL  MW     876   0.489   1.055   3.270
  220SOL  OW     877   0.445   1.084   3.530
  220SOL  HW1    878   0.369   1.142   3.526
  220SOL  HW2    879   0.410   1.000   3.558
  220SOL  MW     880   0.431   1.081   3.533
  221SOL  OW     881   0.444   1.108   3.821
  221SOL  HW1    882   0.495   1.188   3.828
  221SOL  HW2    883   0.385   1.110   3.897
  221SOL  MW     884   0.443   1.118   3.832
  222SOL  OW     885   0.428   1.372   0.171
  222SOL  HW1    886   0.487   1.435   0.129
  222SOL  HW2    887   0.358   1.358   0.108
  222SOL  MW     888   0.427   1.378   0.158
  223SOL  OW     889   0.486   1.425   0.445
  223SOL  HW1    890   0.523   1.349   0.492
  223SOL  HW2    891   0.391   1.411   0.448
  223SOL  MW     892   0.479   1.413   0.452
  224SOL  OW     893   0.454   1.356   0.775
  224SOL  HW1    894   0.361   1.360   0.797
  224SOL  HW2    895   0.488   1.285   0.830
  224SOL  MW     896   0.447   1.347   0.785
  225SOL  OW     897   0.501   1.401   1.085
  225SOL  HW1    898   0.580   1.356   1.117
  225SOL  HW2    899   0.439   1.330   1.067
  225SOL  MW     900   0.503   1.386   1.086
  226SOL  OW     901   0.453   1.418   1.384
  226SOL  HW1    902   0.486   1.505   1.361
  226SOL  HW2    903   0.523   1.379   1.438
  226SOL  MW     904   0.466   1.424   1.388
  227SOL  OW     905   0.432   1.374   1.658
  227SOL  HW1    906   0.443   1.467   1.674
  227SOL  HW2    907   0.484   1.331   1.726
  227SOL  MW     908   0.440   1.380   1.668
  228SOL  OW     909   0.438   1.346   1.996
  228SOL  HW1    910   0.421   1.332   1.903
  228SOL  HW2    911   0.468   1.261   2.028
  228SOL  MW     912   0.439   1.333   1.988
  229SOL  OW     913   0.472   1.372   2.301
  229SOL  HW1    914   0.427   1.412   2.227
  229SOL  HW2    915   0.403   1.327   2.350
  229SOL  MW     916   0.458   1.371   2.298
  230SOL  OW     917   0.498   1.405   2.619
  230SOL  HW1    918   0.453   1.481   2.582
  230SOL  HW2    919   0.477   1.407   2.712
  230SOL  MW     920   0.490   1.415   2.626
  231SOL  OW     921   0.444   1.416   2.902
  231SOL  HW1    922   0.530   1.373   2.903
  231SOL  HW2    923   0.403   1.386   2.821
  231SOL  MW     924   0.450   1.407   2.892
  232SOL  OW     925   0.448   1.417   3.233
  232SOL  HW1    926   0.430   1.324   3.241
  232SOL  HW2    927   0.438   1.451   3.322
  232SOL  MW     928   0.444   1.410   3.246
  233SOL  OW     929   0.481   1.392   3.551
  233SOL  HW1    930   0.534   1.376   3.629
  233SOL  HW2    931   0.505   1.322   3.490
  233SOL  MW     932   0.491   1.381   3.553
  234SOL  OW     933   0.445   1.364   3.832
  234SOL  HW1    934   0.436   1.405   3.746
  234SOL  HW2    935   0.531   1.394   3.864
  234SOL  MW     936   0.455   1.373   3.825
  235SOL  OW     937   0.434   1.722   0.137
  235SOL  HW1    938   0.526   1.746   0.146
  235SOL  HW2    939   0.430   1.630   0.161
  235SOL  MW     940   0.445   1.713   0.141
  236SOL  OW     941   0.466   1.716   0.484
  236SOL  HW1    942   0.445   1.656   0.413
  236SOL  HW2    943   0.429   1.800   0.457
  236SOL  MW     944   0.459   1.719   0.472
  237SOL  OW     945   0.457   1.690   0.809
  237SOL  HW1    946   0.441   1.755   0.740
  237SOL  HW2    947   0.381   1.698   0.867
  237SOL  MW     948   0.445   1.700   0.807
  238SOL  OW     949   0.476   1.717   1.109
  238SOL  HW1    950   0.382   1.727   1.092
  238SOL  HW2    951   0.489   1.623   1.121
  238SOL  MW     952   0.465   1.707   1.108
  239SOL  OW     953   0.485   1.667   1.390
  239SOL  HW1    954   0.458   1.641   1.301
  239SOL  HW2    955   0.529   1.751   1.378
  239SOL  MW     956   0.487   1.675   1.377
  240SOL  OW     957   0.430   1.705   1.729
  240SOL  HW1    958   0.438   1.616   1.765
  240SOL  HW2    959   0.503   1.713   1.668
  240SOL  MW     960   0.440   1.694   1.726
  241SOL  OW     961   0.463   1.687   1.963
  241SOL  HW1    962   0.520   1.641   1.901
  241SOL  HW2    963   0.518   1.754   2.002
  241SOL  MW     964   0.477   1.690   1.960
  242SOL  OW     965   0.498   1.661   2.271
  242SOL  HW1    966   0.486   1.711   2.191
  242SOL  HW2    967   0.592   1.643   2.274
  242SOL  MW     968   0.509   1.665   2.261
  243SOL  OW     969   0.441   1.658   2.612
  243SOL  HW1    970   0.395   1.601   2.674
  243SOL  HW2    971   0.466   1.599   2.540
  243SOL  MW     972   0.438   1.643   2.611
  244SOL  OW     973   0.463   1.677   2.887
  244SOL  HW1    974   0.426   1.597   2.851
  244SOL  HW2    975   0.513   1.715   2.815
  244SOL  MW     976   0.464   1.672   2.873
  245SOL  OW     977   0.430   1.683   3.196
  245SOL  HW1    978   0.380   1.680   3.277
  245SOL  HW2    979   0.436   1.592   3.168
  245SOL  MW     980   0.425   1.671   3.203
  246SOL  OW     981   0.477   1.669   3.523
  246SOL  HW1    982   0.451   1.604   3.588
  246SOL  HW2    983   0.480   1.620   3.440
  246SOL  MW     984   0.474   1.654   3.520
  247SOL  OW     985   0.453   1.686   3.806
  247SOL  HW1    986   0.411   1.728   3.732
  247SOL  HW2    987   0.538   1.729   3.813
  247SOL  MW     988   0.459   1.697   3.798
  248SOL  OW     989   0.431   2.029   0.114
  248SOL  HW1    990   0.499   2.010   0.179
  248SOL  HW2    991   0.448   2.119   0.086
  248SOL  MW     992   0.441   2.038   0.119
  249SOL  OW     993   0.462   1.999   0.448
  249SOL  HW1    994   0.369   1.998   0.470
  249SOL  HW2    995   0.490   1.908   0.460
  249SOL  MW     996   0.454   1.987   0.452
  250SOL  OW     997   0.456   2.022   0.797
  250SOL  HW1    998   0.446   1.934   0.831
  250SOL  HW2    999   0.518   2.064   0.857
  250SOL  MW    1000   0.463   2.016   0.809
  251SOL  OW    1001   0.442   1.986   1.056
  251SOL  HW1   1002   0.445   2.060   1.117
  251SOL  HW2   1003   0.514   1.929   1.084
  251SOL  MW    1004   0.452   1.988   1.068
  252SOL  OW    1005   0.460   2.015   1.363
  252SOL  HW1   1006   0.525   1.998   1.431
  252SOL  HW2   1007   0.502   2.077   1.303
  252SOL  MW    1008   0.474   2.021   1.364
  253SOL  OW    1009   0.448   2.034   1.656
  253SOL  HW1   1010   0.408   2.119   1.677
  253SOL  HW2   1011   0.503   2.052   1.580
  253SOL  MW    1012   0.450   2.048   1.649
  254SOL  OW    1013   0.458   2.017   1.972
  254SOL  HW1   1014   0.535   2.007   1.916
  254SOL  HW2   1015   0.401   1.944   1.948
  254SOL  MW    1016   0.461   2.006   1.962
  255SOL  OW    1017   0.425   1.971   2.341
  255SOL  HW1   1018   0.448   2.050   2.390
  255SOL  HW2   1019   0.349   1.996   2.290
  255SOL  MW    1020   0.418   1.984   2.341
  256SOL  OW    1021   0.422   1.975   2.578
  256SOL  HW1   1022   0.334   2.011   2.588
  256SOL  HW2   1023   0.431   1.960   2.484
  256SOL  MW    1024   0.412   1.978   2.567
  257SOL  OW    1025   0.430   2.010   2.902
  257SOL  HW1   1026   0.379   2.033   2.825
  257SOL  HW2   1027   0.384   2.052   2.975
  257SOL  MW    1028   0.418   2.018   2.902
  258SOL  OW    1029   0.467   2.007   3.259
  258SOL  HW1   1030   0.491   1.989   3.349
  258SOL  HW2   1031   0.389   1.954   3.244
  258SOL  MW    1032   0.460   1.998   3.268
  259SOL  OW    1033   0.422   2.028   3.548
  259SOL  HW1   1034   0.432   2.041   3.454
  259SOL  HW2   1035   0.459   1.942   3.565
  259SOL  MW    1036   0.428   2.019   3.538
  260SOL  OW    1037   0.435   2.022   3.875
  260SOL  HW1   1038   0.431   2.060   3.962
  260SOL  HW2   1039   0.406   1.931   3.886
  260SOL  MW    1040   0.430   2.015   3.887
  261SOL  OW    1041   0.442   2.341   0.150
  261SOL  HW1   1042   0.406   2.279   0.087
  261SOL  HW2   1043   0.379   2.341   0.222
  261SOL  MW    1044   0.429   2.333   0.151
  262SOL  OW    1045   0.470   2.346   0.450
  262SOL  HW1   1046   0.386   2.390   0.434
  262SOL  HW2   1047   0.529   2.381   0.383
  262SOL  MW    1048   0.467   2.357   0.440
  263SOL  OW    1049   0.487   2.293   0.793
  263SOL  HW1   1050   0.426   2.240   0.845
  263SOL  HW2   1051   0.517   2.234   0.724
  263SOL  MW    1052   0.483   2.279   0.791
  264SOL  OW    1053   0.470   2.285   1.070
  264SOL  HW1   1054   0.465   2.372   1.031
  264SOL  HW2   1055   0.563   2.268   1.081
  264SOL  MW    1056   0.481   2.294   1.066
  265SOL  OW    1057   0.447   2.274   1.347
  265SOL  HW1   1058   0.457   2.298   1.255
  265SOL  HW2   1059   0.466   2.180   1.350
  265SOL  MW    1060   0.451   2.265   1.336
  266SOL  OW    1061   0.449   2.269   1.666
  266SOL  HW1   1062   0.363   2.295   1.633
  266SOL  HW2   1063   0.511   2.318   1.611
  266SOL  MW    1064   0.446   2.279   1.654
  267SOL  OW    1065   0.480   2.324   2.019
  267SOL  HW1   1066   0.546   2.390   1.997
  267SOL  HW2   1067   0.515   2.242   1.985
  267SOL  MW    1068   0.493   2.322   2.012
  268SOL  OW    1069   0.447   2.339   2.315
  268SOL  HW1   1070   0.535   2.367   2.291
  268SOL  HW2   1071   0.460   2.289   2.396
  268SOL  MW    1072   0.460   2.336   2.322
  269SOL  OW    1073   0.432   2.279   2.631
  269SOL  HW1   1074   0.363   2.240   2.685
  269SOL  HW2   1075   0.432   2.226   2.551
  269SOL  MW    1076   0.423   2.267   2.628
  270SOL  OW    1077   0.435   2.308   2.962
  270SOL  HW1   1078   0.362   2.249   2.979
  270SOL  HW2   1079   0.509   2.268   3.009
  270SOL  MW    1080   0.435   2.296   2.970
  271SOL  OW    1081   0.422   2.269   3.270
  271SOL  HW1   1082   0.476   2.195   3.242
  271SOL  HW2   1083   0.477   2.346   3.256
  271SOL  MW    1084   0.436   2.269   3.265
  272SOL  OW    1085   0.468   2.278   3.570
  272SOL  HW1   1086   0.399   2.254   3.509
  272SOL  HW2   1087   0.531   2.328   3.518
  272SOL  MW    1088   0.467   2.281   3.556
  273SOL  OW    1089   0.492   2.311   3.856
  273SOL  HW1   1090   0.455   2.342   3.939
  273SOL  HW2   1091   0.476   2.382   3.794
  273SOL  MW    1092   0.485   2.324   3.859
  274SOL  OW    1093   0.443   2.579   0.161
  274SOL  HW1   1094   0.418   2.514   0.227
  274SOL  HW2   1095   0.366   2.635   0.152
  274SOL  MW    1096   0.430   2.578   0.169
  275SOL  OW    1097   0.445   2.628   0.488
  275SOL  HW1   1098   0.370   2.670   0.445
  275SOL  HW2   1099   0.458   2.679   0.569
  275SOL  MW    1100   0.437   2.640   0.493
  276SOL  OW    1101   0.423   2.623   0.748
  276SOL  HW1   1102   0.427   2.546   0.804
  276SOL  HW2   1103   0.493   2.680   0.780
  276SOL  MW    1104   0.432   2.620   0.759
  277SOL  OW    1105   0.491   2.596   1.086
  277SOL  HW1   1106   0.564   2.534   1.084
  277SOL  HW2   1107   0.460   2.599   0.996
  277SOL  MW    1108   0.497   2.588   1.074
  278SOL  OW    1109   0.466   2.607   1.399
  278SOL  HW1   1110   0.523   2.618   1.323
  278SOL  HW2   1111   0.524   2.620   1.474
  278SOL  MW    1112   0.481   2.610   1.399
  279SOL  OW    1113   0.480   2.621   1.713
  279SOL  HW1   1114   0.446   2.678   1.782
  279SOL  HW2   1115   0.532   2.556   1.760
  279SOL  MW    1116   0.482   2.620   1.728
  280SOL  OW    1117   0.500   2.609   2.001
  280SOL  HW1   1118   0.419   2.657   2.018
  280SOL  HW2   1119   0.546   2.610   2.085
  280SOL  MW    1120   0.496   2.615   2.014
  281SOL  OW    1121   0.423   2.639   2.309
  281SOL  HW1   1122   0.370   2.616   2.386
  281SOL  HW2   1123   0.391   2.726   2.284
  281SOL  MW    1124   0.412   2.647   2.316
  282SOL  OW    1125   0.454   2.583   2.647
  282SOL  HW1   1126   0.522   2.524   2.679
  282SOL  HW2   1127   0.393   2.526   2.599
  282SOL  MW    1128   0.455   2.568   2.645
  283SOL  OW    1129   0.453   2.630   2.895
  283SOL  HW1   1130   0.434   2.698   2.831
  283SOL  HW2   1131   0.549   2.623   2.894
  283SOL  MW    1132   0.463   2.638   2.887
  284SOL  OW    1133   0.498   2.590   3.207
  284SOL  HW1   1134   0.423   2.534   3.187
  284SOL  HW2   1135   0.512   2.579   3.301
  284SOL  MW    1136   0.491   2.581   3.216
  285SOL  OW    1137   0.490   2.648   3.515
  285SOL  HW1   1138   0.440   2.631   3.436
  285SOL  HW2   1139   0.582   2.638   3.489
  285SOL  MW    1140   0.496   2.645   3.502
  286SOL  OW    1141   0.459   2.634   3.876
  286SOL  HW1   1142   0.459   2.730   3.874
  286SOL  HW2   1143   0.371   2.609   3.849
  286SOL  MW    1144   0.448   2.643   3.873
  287SOL  OW    1145   0.452   2.924   0.173
  287SOL  HW1   1146   0.487   3.008   0.202
  287SOL  HW2   1147   0.423   2.940   0.083
  287SOL  MW    1148   0.453   2.937   0.165
  288SOL  OW    1149   0.480   2.946   0.467
  288SOL  HW1   1150   0.447   3.035   0.459
  288SOL  HW2   1151   0.569   2.956   0.500
  288SOL  MW    1152   0.487   2.959   0.470
  289SOL  OW    1153   0.430   2.955   0.798
  289SOL  HW1   1154   0.384   3.031   0.763
  289SOL  HW2   1155   0.451   2.980   0.888
  289SOL  MW    1156   0.427   2.968   0.805
  290SOL  OW    1157   0.485   2.891   1.053
  290SOL  HW1   1158   0.463   2.802   1.079
  290SOL  HW2   1159   0.580   2.896   1.063
  290SOL  MW    1160   0.495   2.880   1.058
  291SOL  OW    1161   0.481   2.885   1.423
  291SOL  HW1   1162   0.432   2.843   1.353
  291SOL  HW2   1163   0.511   2.968   1.385
  291SOL  MW    1164   0.478   2.890   1.409
  292SOL  OW    1165   0.452   2.941   1.723
  292SOL  HW1   1166   0.445   2.859   1.674
  292SOL  HW2   1167   0.454   3.009   1.656
  292SOL  MW    1168   0.451   2.939   1.708
  293SOL  OW    1169   0.453   2.909   2.009
  293SOL  HW1   1170   0.493   2.822   2.005
  293SOL  HW2   1171   0.501   2.954   2.078
  293SOL  MW    1172   0.464   2.903   2.017
  294SOL  OW    1173   0.468   2.916   2.316
  294SOL  HW1   1174   0.455   2.871   2.400
  294SOL  HW2   1175   0.563   2.920   2.306
  294SOL  MW    1176   0.478   2.911   2.325
  295SOL  OW    1177   0.496   2.920   2.591
  295SOL  HW1   1178   0.582   2.955   2.568
  295SOL  HW2   1179   0.438   2.996   2.588
  295SOL  MW    1180   0.500   2.935   2.588
  296SOL  OW    1181   0.452   2.915   2.894
  296SOL  HW1   1182   0.527   2.974   2.898
  296SOL  HW2   1183   0.389   2.959   2.836
  296SOL  MW    1184   0.453   2.928   2.887
  297SOL  OW    1185   0.435   2.938   3.218
  297SOL  HW1   1186   0.457   2.853   3.180
  297SOL  HW2   1187   0.348   2.925   3.256
  297SOL  MW    1188   0.426   2.925   3.218
  298SOL  OW    1189   0.498   2.903   3.506
  298SOL  HW1   1190   0.514   2.919   3.599
  298SOL  HW2   1191   0.451   2.980   3.476
  298SOL  MW    1192   0.494   2.915   3.514
  299SOL  OW    1193   0.482   2.954   3.828
  299SOL  HW1   1194   0.446   2.867   3.809
  299SOL  HW2   1195   0.417   3.014   3.793
  299SOL  MW    1196   0.469   2.950   3.821
  300SOL  OW    1197   0.438   3.206   0.156
  300SOL  HW1   1198   0.470   3.270   0.092
  300SOL  HW2   1199   0.434   3.123   0.107
  300SOL  MW    1200   0.441   3.203   0.141
  301SOL  OW    1201   0.459   3.212   0.425
  301SOL  HW1   1202   0.518   3.187   0.496
  301SOL  HW2   1203   0.400   3.137   0.415
  301SOL  MW    1204   0.459   3.199   0.433
  302SOL  OW    1205   0.460   3.268   0.781
  302SOL  HW1   1206   0.419   3.274   0.867
  302SOL  HW2   1207   0.441   3.178   0.753
  302SOL  MW    1208   0.452   3.257   0.789
  303SOL  OW    1209   0.461   3.200   1.057
  303SOL  HW1   1210   0.386   3.250   1.087
  303SOL  HW2   1211   0.535   3.260   1.065
  303SOL  MW    1212   0.461   3.214   1.062
  304SOL  OW    1213   0.445   3.252   1.415
  304SOL  HW1   1214   0.416   3.271   1.504
  304SOL  HW2   1215   0.473   3.337   1.380
  304SOL  MW    1216   0.445   3.265   1.422
  305SOL  OW    1217   0.494   3.270   1.731
  305SOL  HW1   1218   0.522   3.327   1.659
  305SOL  HW2   1219   0.506   3.322   1.810
  305SOL  MW    1220   0.499   3.284   1.732
  306SOL  OW    1221   0.498   3.197   1.971
  306SOL  HW1   1222   0.427   3.132   1.974
  306SOL  HW2   1223   0.550   3.179   2.049
  306SOL  MW    1224   0.495   3.186   1.981
  307SOL  OW    1225   0.446   3.235   2.275
  307SOL  HW1   1226   0.478   3.325   2.267
  307SOL  HW2   1227   0.356   3.244   2.308
  307SOL  MW    1228   0.439   3.248   2.279
  308SOL  OW    1229   0.489   3.240   2.619
  308SOL  HW1   1230   0.505   3.157   2.574
  308SOL  HW2   1231   0.513   3.223   2.710
  308SOL  MW    1232   0.494   3.227   2.625
  309SOL  OW    1233   0.435   3.211   2.896
  309SOL  HW1   1234   0.463   3.302   2.894
  309SOL  HW2   1235   0.400   3.198   2.984
  309SOL  MW    1236   0.434   3.221   2.907
  310SOL  OW    1237   0.490   3.238   3.250
  310SOL  HW1   1238   0.476   3.319   3.201
  310SOL  HW2   1239   0.528   3.177   3.186
  310SOL  MW    1240   0.493   3.240   3.235
  311SOL  OW    1241   0.445   3.220   3.531
  311SOL  HW1   1242   0.474   3.289   3.592
  311SOL  HW2   1243   0.511   3.222   3.461
  311SOL  MW    1244   0.457   3.229   3.530
  312SOL  OW    1245   0.482   3.253   3.823
  312SOL  HW1   1246   0.496   3.263   3.729
  312SOL  HW2   1247   0.560   3.206   3.854
  312SOL  MW    1248   0.494   3.248   3.815
  313SOL  OW    1249   0.497   3.508   0.186
  313SOL  HW1   1250   0.430   3.463   0.237
  313SOL  HW2   1251   0.451   3.538   0.107
  313SOL  MW    1252   0.482   3.506   0.182
  314SOL  OW    1253   0.430   3.520   0.489
  314SOL  HW1   1254   0.431   3.426   0.468
  314SOL  HW2   1255   0.470   3.562   0.414
  314SOL  MW    1256   0.435   3.513   0.477
  315SOL  OW    1257   0.436   3.532   0.765
  315SOL  HW1   1258   0.520   3.505   0.729
  315SOL  HW2   1259   0.383   3.452   0.763
  315SOL  MW    1260   0.440   3.518   0.760
  316SOL  OW    1261   0.441   3.555   1.105
  316SOL  HW1   1262   0.389   3.562   1.185
  316SOL  HW2   1263   0.489   3.638   1.101
  316SOL  MW    1264   0.441   3.567   1.115
  317SOL  OW    1265   0.492   3.526   1.387
  317SOL  HW1   1266   0.479   3.468   1.462
  317SOL  HW2   1267   0.556   3.590   1.417
  317SOL  MW    1268   0.498   3.526   1.400
  318SOL  OW    1269   0.441   3.518   1.665
  318SOL  HW1   1270   0.452   3.600   1.714
  318SOL  HW2   1271   0.402   3.458   1.728
  318SOL  MW    1272   0.438   3.521   1.679
  319SOL  OW    1273   0.497   3.570   2.022
  319SOL  HW1   1274   0.526   3.656   2.051
  319SOL  HW2   1275   0.578   3.523   2.001
  319SOL  MW    1276   0.511   3.575   2.023
  320SOL  OW    1277   0.463   3.538   2.310
  320SOL  HW1   1278   0.480   3.605   2.244
  320SOL  HW2   1279   0.459   3.456   2.261
  320SOL  MW    1280   0.465   3.536   2.295
  321SOL  OW    1281   0.464   3.533   2.586
  321SOL  HW1   1282   0.384   3.561   2.630
  321SOL  HW2   1283   0.450   3.556   2.494
  321SOL  MW    1284   0.452   3.540   2.580
  322SOL  OW    1285   0.432   3.575   2.922
  322SOL  HW1   1286   0.467   3.584   3.010
  322SOL  HW2   1287   0.338   3.591   2.932
  322SOL  MW    1288   0.424   3.578   2.934
  323SOL  OW    1289   0.498   3.512   3.235
  323SOL  HW1   1290   0.539   3.597   3.243
  323SOL  HW2   1291   0.531   3.462   3.310
  323SOL  MW    1292   0.507   3.516   3.246
  324SOL  OW    1293   0.438   3.519   3.501
  324SOL  HW1   1294   0.447   3.426   3.524
  324SOL  HW2   1295   0.375   3.520   3.429
  324SOL  MW    1296   0.431   3.507   3.495
  325SOL  OW    1297   0.431   3.572   3.832
  325SOL  HW1   1298   0.391   3.623   3.762
  325SOL  HW2   1299   0.511   3.620   3.854
  325SOL  MW    1300   0.436   3.585   3.826
  326SOL  OW    1301   0.470   3.843   0.146
  326SOL  HW1   1302   0.547   3.792   0.121
  326SOL  HW2   1303   0.419   3.785   0.202
  326SOL  MW    1304   0.473   3.829   0.150
  327SOL  OW    1305   0.464   3.821   0.501
  327SOL  HW1   1306   0.526   3.748   0.496
  327SOL  HW2   1307   0.386   3.783   0.541
  327SOL  MW    1308   0.462   3.807   0.505
  328SOL  OW    1309   0.487   3.865   0.767
  328SOL  HW1   1310   0.580   3.849   0.754
  328SOL  HW2   1311   0.445   3.782   0.746
  328SOL  MW    1312   0.494   3.853   0.763
  329SOL  OW    1313   0.434   3.880   1.064
  329SOL  HW1   1314   0.505   3.847   1.119
  329SOL  HW2   1315   0.354   3.844   1.104
  329SOL  MW    1316   0.433   3.871   1.076
  330SOL  OW    1317   0.426   3.834   1.408
  330SOL  HW1   1318   0.430   3.757   1.465
  330SOL  HW2   1319   0.434   3.798   1.320
  330SOL  MW    1320   0.427   3.819   1.404
  331SOL  OW    1321   0.471   3.866   1.716
  331SOL  HW1   1322   0.488   3.854   1.622
  331SOL  HW2   1323   0.384   3.829   1.730
  331SOL  MW    1324   0.462   3.860   1.706
  332SOL  OW    1325   0.438   3.880   1.995
  332SOL  HW1   1326   0.371   3.932   2.039
  332SOL  HW2   1327   0.468   3.935   1.922
  332SOL  MW    1328   0.434   3.894   1.991
  333SOL  OW    1329   0.473   3.806   2.347
  333SOL  HW1   1330   0.402   3.757   2.388
  333SOL  HW2   1331   0.542   3.742   2.334
  333SOL  MW    1332   0.472   3.792   2.351
  334SOL  OW    1333   0.444   3.811   2.612
  334SOL  HW1   1334   0.486   3.897   2.620
  334SOL  HW2   1335   0.451   3.773   2.699
  334SOL  MW    1336   0.450   3.817   2.624
  335SOL  OW    1337   0.432   3.818   2.934
  335SOL  HW1   1338   0.390   3.739   2.900
  335SOL  HW2   1339   0.368   3.855   2.995
  335SOL  MW    1340   0.418   3.813   2.937
  336SOL  OW    1341   0.453   3.880   3.216
  336SOL  HW1   1342   0.506   3.831   3.279
  336SOL  HW2   1343   0.501   3.961   3.201
  336SOL  MW    1344   0.466   3.884   3.222
  337SOL  OW    1345   0.480   3.843   3.551
  337SOL  HW1   1346   0.411   3.809   3.609
  337SOL  HW2   1347   0.542   3.885   3.610
  337SOL  MW    1348   0.479   3.844   3.566
  338SOL  OW    1349   0.470   3.844   3.882
  338SOL  HW1   1350   0.404   3.904   3.846
  338SOL  HW2   1351   0.526   3.900   3.936
  338SOL  MW    1352   0.468   3.859   3.884
  339SOL  OW    1353   0.757   0.128   0.168
  339SOL  HW1   1354   0.823   0.090   0.226
  339SOL  HW2   1355   0.682   0.069   0.176
  339SOL  MW    1356   0.756   0.116   0.176
  340SOL  OW    1357   0.797   0.117   0.458
  340SOL  HW1   1358   0.879   0.167   0.458
  340SOL  HW2   1359   0.779   0.099   0.550
  340SOL  MW    1360   0.805   0.121   0.469
  341SOL  OW    1361   0.801   0.174   0.809
  341SOL  HW1   1362   0.762   0.241   0.864
  341SOL  HW2   1363   0.729   0.112   0.792
  341SOL  MW    1364   0.787   0.175   0.814
  342SOL  OW    1365   0.772   0.167   1.061
  342SOL  HW1   1366   0.789   0.156   1.155
  342SOL  HW2   1367   0.807   0.253   1.040
  342SOL  MW    1368   0.778   0.176   1.070
  343SOL  OW    1369   0.805   0.143   1.404
  343SOL  HW1   1370   0.714   0.136   1.374
  343SOL  HW2   1371   0.800   0.192   1.486
  343SOL  MW    1372   0.793   0.148   1.410
  344SOL  OW    1373   0.761   0.159   1.710
  344SOL  HW1   1374   0.762   0.225   1.779
  344SOL  HW2   1375   0.854   0.137   1.697
  344SOL  MW    1376   0.773   0.164   1.717
  345SOL  OW    1377   0.770   0.186   1.994
  345SOL  HW1   1378   0.863   0.201   2.009
  345SOL  HW2   1379   0.765   0.098   1.958
  345SOL  MW    1380   0.781   0.177   1.991
  346SOL  OW    1381   0.781   0.141   2.300
  346SOL  HW1   1382   0.844   0.102   2.361
  346SOL  HW2   1383   0.696   0.114   2.334
  346SOL  MW    1384   0.778   0.133   2.312
  347SOL  OW    1385   0.764   0.124   2.583
  347SOL  HW1   1386   0.702   0.111   2.512
  347SOL  HW2   1387   0.728   0.075   2.656
  347SOL  MW    1388   0.752   0.116   2.583
  348SOL  OW    1389   0.783   0.166   2.936
  348SOL  HW1   1390   0.793   0.092   2.995
  348SOL  HW2   1391   0.697   0.153   2.895
  348SOL  MW    1392   0.773   0.155   2.938
  349SOL  OW    1393   0.731   0.140   3.207
  349SOL  HW1   1394   0.804   0.083   3.182
  349SOL  HW2   1395   0.660   0.080   3.230
  349SOL  MW    1396   0.731   0.125   3.207
  350SOL  OW    1397   0.791   0.183   3.518
  350SOL  HW1   1398   0.698   0.204   3.517
  350SOL  HW2   1399   0.835   0.263   3.489
  350SOL  MW    1400   0.785   0.196   3.514
  351SOL  OW    1401   0.783   0.124   3.828
  351SOL  HW1   1402   0.749   0.109   3.740
  351SOL  HW2   1403   0.760   0.044   3.876
  351SOL  MW    1404   0.775   0.112   3.823
  352SOL  OW    1405   0.740   0.444   0.168
  352SOL  HW1   1406   0.655   0.401   0.165
  352SOL  HW2   1407   0.730   0.522   0.113
  352SOL  MW    1408   0.728   0.449   0.160
  353SOL  OW    1409   0.802   0.438   0.465
  353SOL  HW1   1410   0.838   0.443   0.376
  353SOL  HW2   1411   0.838   0.514   0.511
  353SOL  MW    1412   0.811   0.448   0.459
  354SOL  OW    1413   0.785   0.498   0.778
  354SOL  HW1   1414   0.716   0.548   0.734
  354SOL  HW2   1415   0.766   0.406   0.757
  354SOL  MW    1416   0.774   0.492   0.770
  355SOL  OW    1417   0.750   0.472   1.063
  355SOL  HW1   1418   0.756   0.468   0.967
  355SOL  HW2   1419   0.767   0.382   1.091
  355SOL  MW    1420   0.753   0.460   1.054
  356SOL  OW    1421   0.807   0.454   1.399
  356SOL  HW1   1422   0.804   0.404   1.481
  356SOL  HW2   1423   0.716   0.477   1.383
  356SOL  MW    1424   0.795   0.450   1.408
  357SOL  OW    1425   0.731   0.454   1.722
  357SOL  HW1   1426   0.641   0.484   1.709
  357SOL  HW2   1427   0.784   0.533   1.717
  357SOL  MW    1428   0.726   0.468   1.720
  358SOL  OW    1429   0.778   0.457   2.035
  358SOL  HW1   1430   0.771   0.406   2.115
  358SOL  HW2   1431   0.738   0.541   2.056
  358SOL  MW    1432   0.772   0.461   2.048
  359SOL  OW    1433   0.798   0.447   2.311
  359SOL  HW1   1434   0.852   0.450   2.390
  359SOL  HW2   1435   0.773   0.539   2.296
  359SOL  MW    1436   0.801   0.459   2.319
  360SOL  OW    1437   0.768   0.472   2.602
  360SOL  HW1   1438   0.674   0.456   2.600
  360SOL  HW2   1439   0.776   0.567   2.607
  360SOL  MW    1440   0.757   0.482   2.602
  361SOL  OW    1441   0.749   0.495   2.957
  361SOL  HW1   1442   0.712   0.444   3.030
  361SOL  HW2   1443   0.837   0.518   2.986
  361SOL  MW    1444   0.755   0.491   2.970
  362SOL  OW    1445   0.797   0.500   3.250
  362SOL  HW1   1446   0.815   0.551   3.329
  362SOL  HW2   1447   0.802   0.563   3.179
  362SOL  MW    1448   0.800   0.514   3.251
  363SOL  OW    1449   0.790   0.483   3.537
  363SOL  HW1   1450   0.853   0.423   3.578
  363SOL  HW2   1451   0.713   0.477   3.592
  363SOL  MW    1452   0.788   0.474   3.549
  364SOL  OW    1453   0.766   0.441   3.858
  364SOL  HW1   1454   0.693   0.395   3.899
  364SOL  HW2   1455   0.837   0.377   3.856
  364SOL  MW    1456   0.765   0.427   3.863
  365SOL  OW    1457   0.752   0.750   0.161
  365SOL  HW1   1458   0.811   0.745   0.085
  365SOL  HW2   1459   0.665   0.733   0.125
  365SOL  MW    1460   0.749   0.747   0.146
  366SOL  OW    1461   0.762   0.747   0.487
  366SOL  HW1   1462   0.816   0.782   0.558
  366SOL  HW2   1463   0.710   0.821   0.457
  366SOL  MW    1464   0.762   0.761   0.492
  367SOL  OW    1465   0.798   0.743   0.730
  367SOL  HW1   1466   0.883   0.729   0.687
  367SOL  HW2   1467   0.744   0.784   0.663
  367SOL  MW    1468   0.802   0.746   0.716
  368SOL  OW    1469   0.756   0.793   1.104
  368SOL  HW1   1470   0.804   0.870   1.135
  368SOL  HW2   1471   0.761   0.798   1.009
  368SOL  MW    1472   0.763   0.804   1.096
  369SOL  OW    1473   0.740   0.791   1.354
  369SOL  HW1   1474   0.693   0.799   1.271
  369SOL  HW2   1475   0.732   0.878   1.394
  369SOL  MW    1476   0.733   0.803   1.348
  370SOL  OW    1477   0.760   0.809   1.668
  370SOL  HW1   1478   0.822   0.799   1.740
  370SOL  HW2   1479   0.773   0.731   1.614
  370SOL  MW    1480   0.770   0.798   1.670
  371SOL  OW    1481   0.742   0.763   2.010
  371SOL  HW1   1482   0.777   0.835   1.957
  371SOL  HW2   1483   0.686   0.806   2.074
  371SOL  MW    1484   0.739   0.778   2.011
  372SOL  OW    1485   0.804   0.808   2.273
  372SOL  HW1   1486   0.801   0.873   2.343
  372SOL  HW2   1487   0.859   0.847   2.206
  372SOL  MW    1488   0.810   0.821   2.274
  373SOL  OW    1489   0.740   0.792   2.597
  373SOL  HW1   1490   0.787   0.823   2.519
  373SOL  HW2   1491   0.720   0.873   2.645
  373SOL  MW    1492   0.744   0.807   2.593
  374SOL  OW    1493   0.800   0.782   2.892
  374SOL  HW1   1494   0.874   0.783   2.953
  374SOL  HW2   1495   0.765   0.871   2.897
  374SOL  MW    1496   0.805   0.794   2.900
  375SOL  OW    1497   0.796   0.743   3.225
  375SOL  HW1   1498   0.864   0.810   3.217
  375SOL  HW2   1499   0.832   0.667   3.179
  375SOL  MW    1500   0.809   0.742   3.218
  376SOL  OW    1501   0.773   0.769   3.553
  376SOL  HW1   1502   0.741   0.858   3.536
  376SOL  HW2   1503   0.784   0.766   3.648
  376SOL  MW    1504   0.771   0.780   3.563
  377SOL  OW    1505   0.781   0.809   3.886
  377SOL  HW1   1506   0.740   0.838   3.805
  377SOL  HW2   1507   0.858   0.865   3.896
  377SOL  MW    1508   0.786   0.820   3.877
  378SOL  OW    1509   0.771   1.045   0.172
  378SOL  HW1   1510   0.830   1.018   0.102
  378SOL  HW2   1511   0.751   0.963   0.218
  378SOL  MW    1512   0.776   1.031   0.169
  379SOL  OW    1513   0.807   1.062   0.458
  379SOL  HW1   1514   0.873   1.132   0.462
  379SOL  HW2   1515   0.789   1.052   0.365
  379SOL  MW    1516   0.813   1.070   0.447
  380SOL  OW    1517   0.763   1.041   0.783
  380SOL  HW1   1518   0.799   1.065   0.697
  380SOL  HW2   1519   0.678   1.085   0.787
  380SOL  MW    1520   0.757   1.050   0.773
  381SOL  OW    1521   0.757   1.100   1.103
  381SOL  HW1   1522   0.784   1.176   1.155
  381SOL  HW2   1523   0.773   1.126   1.013
  381SOL  MW    1524   0.763   1.113   1.099
  382SOL  OW    1525   0.795   1.070   1.370
  382SOL  HW1   1526   0.755   1.057   1.284
  382SOL  HW2   1527   0.732   1.033   1.432
  382SOL  MW    1528   0.782   1.064   1.367
  383SOL  OW    1529   0.789   1.101   1.692
  383SOL  HW1   1530   0.875   1.128   1.660
  383SOL  HW2   1531   0.728   1.137   1.628
  383SOL  MW    1532   0.792   1.109   1.679
  384SOL  OW    1533   0.801   1.048   2.030
  384SOL  HW1   1534   0.768   1.099   1.956
  384SOL  HW2   1535   0.828   1.114   2.094
  384SOL  MW    1536   0.800   1.063   2.029
  385SOL  OW    1537   0.737   1.049   2.310
  385SOL  HW1   1538   0.644   1.025   2.313
  385SOL  HW2   1539   0.779   0.992   2.375
  385SOL  MW    1540   0.730   1.039   2.319
  386SOL  OW    1541   0.735   1.041   2.575
  386SOL  HW1   1542   0.743   1.079   2.663
  386SOL  HW2   1543   0.697   1.111   2.522
  386SOL  MW    1544   0.731   1.055   2.580
  387SOL  OW    1545   0.764   1.099   2.886
  387SOL  HW1   1546   0.773   1.111   2.980
  387SOL  HW2   1547   0.680   1.055   2.875
  387SOL  MW    1548   0.754   1.095   2.897
  388SOL  OW    1549   0.781   1.103   3.204
  388SOL  HW1   1550   0.716   1.127   3.270
  388SOL  HW2   1551   0.799   1.010   3.220
  388SOL  MW    1552   0.775   1.094   3.215
  389SOL  OW    1553   0.741   1.106   3.564
  389SOL  HW1   1554   0.778   1.025   3.528
  389SOL  HW2   1555   0.663   1.122   3.511
  389SOL  MW    1556   0.736   1.098   3.553
  390SOL  OW    1557   0.772   1.102   3.814
  390SOL  HW1   1558   0.839   1.095   3.882
  390SOL  HW2   1559   0.800   1.177   3.761
  390SOL  MW    1560   0.784   1.111   3.816
  391SOL  OW    1561   0.761   1.404   0.134
  391SOL  HW1   1562   0.716   1.327   0.170
  391SOL  HW2   1563   0.769   1.385   0.041
  391SOL  MW    1564   0.756   1.391   0.127
  392SOL  OW    1565   0.789   1.385   0.482
  392SOL  HW1   1566   0.847   1.348   0.414
  392SOL  HW2   1567   0.721   1.431   0.433
  392SOL  MW    1568   0.788   1.386   0.467
  393SOL  OW    1569   0.766   1.374   0.747
  393SOL  HW1   1570   0.845   1.416   0.782
  393SOL  HW2   1571   0.712   1.357   0.824
  393SOL  MW    1572   0.769   1.377   0.761
  394SOL  OW    1573   0.746   1.405   1.046
  394SOL  HW1   1574   0.828   1.363   1.022
  394SOL  HW2   1575   0.685   1.383   0.976
  394SOL  MW    1576   0.749   1.397   1.034
  395SOL  OW    1577   0.736   1.359   1.359
  395SOL  HW1   1578   0.659   1.338   1.411
  395SOL  HW2   1579   0.782   1.275   1.349
  395SOL  MW    1580   0.732   1.345   1.364
  396SOL  OW    1581   0.795   1.376   1.732
  396SOL  HW1   1582   0.788   1.403   1.823
  396SOL  HW2   1583   0.877   1.326   1.727
  396SOL  MW    1584   0.805   1.373   1.743
  397SOL  OW    1585   0.740   1.397   1.996
  397SOL  HW1   1586   0.735   1.420   2.089
  397SOL  HW2   1587   0.650   1.400   1.965
  397SOL  MW    1588   0.728   1.400   2.004
  398SOL  OW    1589   0.761   1.415   2.346
  398SOL  HW1   1590   0.813   1.494   2.357
  398SOL  HW2   1591   0.705   1.433   2.270
  398SOL  MW    1592   0.760   1.427   2.337
  399SOL  OW    1593   0.799   1.360   2.593
  399SOL  HW1   1594   0.824   1.274   2.558
  399SOL  HW2   1595   0.750   1.340   2.673
  399SOL  MW    1596   0.796   1.346   2.599
  400SOL  OW    1597   0.782   1.368   2.942
  400SOL  HW1   1598   0.796   1.383   2.848
  400SOL  HW2   1599   0.742   1.449   2.974
  400SOL  MW    1600   0.778   1.380   2.934
  401SOL  OW    1601   0.775   1.389   3.257
  401SOL  HW1   1602   0.839   1.459   3.249
  401SOL  HW2   1603   0.710   1.408   3.189
  401SOL  MW    1604   0.775   1.400   3.247
  402SOL  OW    1605   0.786   1.347   3.502
  402SOL  HW1   1606   0.772   1.355   3.597
  402SOL  HW2   1607   0.723   1.407   3.463
  402SOL  MW    1608   0.776   1.356   3.509
  403SOL  OW    1609   0.777   1.384   3.827
  403SOL  HW1   1610   0.718   1.337   3.886
  403SOL  HW2   1611   0.757   1.349   3.740
  403SOL  MW    1612   0.767   1.373   3.823
  404SOL  OW    1613   0.763   1.713   0.180
  404SOL  HW1   1614   0.757   1.666   0.263
  404SOL  HW2   1615   0.856   1.728   0.168
  404SOL  MW    1616   0.774   1.709   0.189
  405SOL  OW    1617   0.774   1.683   0.443
  405SOL  HW1   1618   0.805   1.690   0.353
  405SOL  HW2   1619   0.754   1.773   0.469
  405SOL  MW    1620   0.775   1.696   0.435
  406SOL  OW    1621   0.771   1.677   0.774
  406SOL  HW1   1622   0.738   1.598   0.731
  406SOL  HW2   1623   0.695   1.735   0.780
  406SOL  MW    1624   0.757   1.675   0.770
  407SOL  OW    1625   0.783   1.658   1.037
  407SOL  HW1   1626   0.722   1.635   0.967
  407SOL  HW2   1627   0.860   1.602   1.021
  407SOL  MW    1628   0.785   1.648   1.026
  408SOL  OW    1629   0.746   1.724   1.396
  408SOL  HW1   1630   0.731   1.803   1.345
  408SOL  HW2   1631   0.664   1.675   1.389
  408SOL  MW    1632   0.734   1.728   1.389
  409SOL  OW    1633   0.743   1.724   1.690
  409SOL  HW1   1634   0.819   1.714   1.633
  409SOL  HW2   1635   0.773   1.782   1.760
  409SOL  MW    1636   0.757   1.730   1.692
  410SOL  OW    1637   0.767   1.727   1.965
  410SOL  HW1   1638   0.714   1.683   1.899
  410SOL  HW2   1639   0.801   1.657   2.020
  410SOL  MW    1640   0.765   1.712   1.963
  411SOL  OW    1641   0.746   1.699   2.283
  411SOL  HW1   1642   0.709   1.772   2.332
  411SOL  HW2   1643   0.732   1.722   2.191
  411SOL  MW    1644   0.740   1.711   2.278
  412SOL  OW    1645   0.784   1.669   2.583
  412SOL  HW1   1646   0.802   1.664   2.490
  412SOL  HW2   1647   0.758   1.581   2.608
  412SOL  MW    1648   0.783   1.657   2.575
  413SOL  OW    1649   0.746   1.686   2.897
  413SOL  HW1   1650   0.767   1.707   2.988
  413SOL  HW2   1651   0.799   1.609   2.878
  413SOL  MW    1652   0.755   1.679   2.906
  414SOL  OW    1653   0.740   1.721   3.216
  414SOL  HW1   1654   0.794   1.670   3.276
  414SOL  HW2   1655   0.663   1.666   3.201
  414SOL  MW    1656   0.737   1.708   3.222
  415SOL  OW    1657   0.758   1.657   3.527
  415SOL  HW1   1658   0.731   1.709   3.602
  415SOL  HW2   1659   0.678   1.644   3.476
  415SOL  MW    1660   0.744   1.662   3.530
  416SOL  OW    1661   0.750   1.701   3.823
  416SOL  HW1   1662   0.836   1.703   3.780
  416SOL  HW2   1663   0.770   1.707   3.916
  416SOL  MW    1664   0.764   1.702   3.829
  417SOL  OW    1665   0.800   2.034   0.122
  417SOL  HW1   1666   0.789   2.018   0.215
  417SOL  HW2   1667   0.880   2.087   0.116
  417SOL  MW    1668   0.809   2.039   0.133
  418SOL  OW    1669   0.738   1.969   0.471
  418SOL  HW1   1670   0.812   1.951   0.529
  418SOL  HW2   1671   0.713   1.884   0.437
  418SOL  MW    1672   0.744   1.956   0.474
  419SOL  OW    1673   0.739   2.028   0.790
  419SOL  HW1   1674   0.799   2.021   0.864
  419SOL  HW2   1675   0.795   2.055   0.717
  419SOL  MW    1676   0.754   2.031   0.790
  420SOL  OW    1677   0.795   2.002   1.117
  420SOL  HW1   1678   0.840   1.918   1.120
  420SOL  HW2   1679   0.854   2.063   1.161
  420SOL  MW    1680   0.808   1.999   1.123
  421SOL  OW    1681   0.733   1.992   1.371
  421SOL  HW1   1682   0.645   2.026   1.388
  421SOL  HW2   1683   0.723   1.897   1.372
  421SOL  MW    1684   0.720   1.984   1.373
  422SOL  OW    1685   0.805   2.006   1.717
  422SOL  HW1   1686   0.809   2.031   1.809
  422SOL  HW2   1687   0.896   1.988   1.693
  422SOL  MW    1688   0.817   2.007   1.726
  423SOL  OW    1689   0.743   2.038   2.000
  423SOL  HW1   1690   0.837   2.030   1.985
  423SOL  HW2   1691   0.734   2.043   2.095
  423SOL  MW    1692   0.754   2.038   2.010
  424SOL  OW    1693   0.769   2.038   2.298
  424SOL  HW1   1694   0.681   2.058   2.265
  424SOL  HW2   1695   0.827   2.051   2.223
  424SOL  MW    1696   0.765   2.042   2.284
  425SOL  OW    1697   0.761   2.007   2.586
  425SOL  HW1   1698   0.835   2.049   2.629
  425SOL  HW2   1699   0.687   2.066   2.600
  425SOL  MW    1700   0.761   2.020   2.593
  426SOL  OW    1701   0.755   1.975   2.891
  426SOL  HW1   1702   0.693   1.948   2.823
  426SOL  HW2   1703   0.826   1.912   2.885
  426SOL  MW    1704   0.756   1.964   2.882
  427SOL  OW    1705   0.799   2.007   3.219
  427SOL  HW1   1706   0.736   1.952   3.172
  427SOL  HW2   1707   0.822   2.076   3.157
  427SOL  MW    1708   0.793   2.009   3.205
  428SOL  OW    1709   0.762   1.995   3.549
  428SOL  HW1   1710   0.783   1.923   3.489
  428SOL  HW2   1711   0.805   2.071   3.511
  428SOL  MW    1712   0.770   1.995   3.537
  429SOL  OW    1713   0.803   2.035   3.837
  429SOL  HW1   1714   0.867   1.988   3.784
  429SOL  HW2   1715   0.818   2.001   3.926
  429SOL  MW    1716   0.813   2.024   3.842
  430SOL  OW    1717   0.756   2.304   0.159
  430SOL  HW1   1718   0.752   2.346   0.245
  430SOL  HW2   1719   0.749   2.210   0.179
  430SOL  MW    1720   0.754   2.297   0.173
  431SOL  OW    1721   0.766   2.320   0.466
  431SOL  HW1   1722   0.753   2.287   0.377
  431SOL  HW2   1723   0.800   2.245   0.515
  431SOL  MW    1724   0.769   2.307   0.461
  432SOL  OW    1725   0.755   2.295   0.760
  432SOL  HW1   1726   0.762   2.216   0.812
  432SOL  HW2   1727   0.789   2.270   0.674
  432SOL  MW    1728   0.760   2.282   0.755
  433SOL  OW    1729   0.737   2.281   1.095
  433SOL  HW1   1730   0.807   2.226   1.061
  433SOL  HW2   1731   0.771   2.316   1.177
  433SOL  MW    1732   0.750   2.278   1.101
  434SOL  OW    1733   0.760   2.285   1.390
  434SOL  HW1   1734   0.702   2.267   1.464
  434SOL  HW2   1735   0.804   2.367   1.412
  434SOL  MW    1736   0.758   2.293   1.402
  435SOL  OW    1737   0.790   2.288   1.718
  435SOL  HW1   1738   0.799   2.229   1.644
  435SOL  HW2   1739   0.872   2.280   1.766
  435SOL  MW    1740   0.801   2.280   1.715
  436SOL  OW    1741   0.803   2.315   2.014
  436SOL  HW1   1742   0.733   2.291   1.953
  436SOL  HW2   1743   0.843   2.393   1.974
  436SOL  MW    1744   0.799   2.322   2.001
  437SOL  OW    1745   0.733   2.343   2.299
  437SOL  HW1   1746   0.791   2.307   2.232
  437SOL  HW2   1747   0.782   2.418   2.333
  437SOL  MW    1748   0.747   2.348   2.295
  438SOL  OW    1749   0.803   2.314   2.576
  438SOL  HW1   1750   0.850   2.231   2.575
  438SOL  HW2   1751   0.718   2.293   2.615
  438SOL  MW    1752   0.798   2.301   2.581
  439SOL  OW    1753   0.732   2.322   2.928
  439SOL  HW1   1754   0.813   2.328   2.877
  439SOL  HW2   1755   0.757   2.273   3.007
  439SOL  MW    1756   0.746   2.317   2.932
  440SOL  OW    1757   0.731   2.327   3.259
  440SOL  HW1   1758   0.653   2.377   3.236
  440SOL  HW2   1759   0.803   2.390   3.250
  440SOL  MW    1760   0.731   2.342   3.255
  441SOL  OW    1761   0.769   2.305   3.499
  441SOL  HW1   1762   0.840   2.316   3.435
  441SOL  HW2   1763   0.788   2.221   3.542
  441SOL  MW    1764   0.780   2.296   3.496
  442SOL  OW    1765   0.792   2.294   3.876
  442SOL  HW1   1766   0.800   2.209   3.919
  442SOL  HW2   1767   0.765   2.353   3.947
  442SOL  MW    1768   0.790   2.291   3.891
  443SOL  OW    1769   0.759   2.621   0.135
  443SOL  HW1   1770   0.695   2.598   0.203
  443SOL  HW2   1771   0.842   2.587   0.169
  443SOL  MW    1772   0.761   2.613   0.148
  444SOL  OW    1773   0.742   2.637   0.461
  444SOL  HW1   1774   0.690   2.638   0.381
  444SOL  HW2   1775   0.700   2.703   0.517
  444SOL  MW    1776   0.730   2.646   0.458
  445SOL  OW    1777   0.772   2.653   0.806
  445SOL  HW1   1778   0.752   2.635   0.898
  445SOL  HW2   1779   0.753   2.746   0.795
  445SOL  MW    1780   0.767   2.662   0.817
  446SOL  OW    1781   0.798   2.590   1.084
  446SOL  HW1   1782   0.881   2.637   1.080
  446SOL  HW2   1783   0.821   2.498   1.075
  446SOL  MW    1784   0.811   2.584   1.083
  447SOL  OW    1785   0.799   2.605   1.353
  447SOL  HW1   1786   0.784   2.687   1.304
  447SOL  HW2   1787   0.714   2.562   1.353
  447SOL  MW    1788   0.787   2.610   1.347
  448SOL  OW    1789   0.794   2.614   1.697
  448SOL  HW1   1790   0.749   2.582   1.619
  448SOL  HW2   1791   0.877   2.566   1.699
  448SOL  MW    1792   0.799   2.604   1.688
  449SOL  OW    1793   0.808   2.624   1.994
  449SOL  HW1   1794   0.890   2.665   2.022
  449SOL  HW2   1795   0.816   2.616   1.899
  449SOL  MW    1796   0.819   2.628   1.985
  450SOL  OW    1797   0.759   2.609   2.277
  450SOL  HW1   1798   0.807   2.636   2.355
  450SOL  HW2   1799   0.822   2.556   2.228
  450SOL  MW    1800   0.773   2.606   2.281
  451SOL  OW    1801   0.793   2.642   2.598
  451SOL  HW1   1802   0.885   2.622   2.614
  451SOL  HW2   1803   0.783   2.733   2.626
  451SOL  MW    1804   0.803   2.651   2.604
  452SOL  OW    1805   0.754   2.645   2.885
  452SOL  HW1   1806   0.677   2.635   2.829
  452SOL  HW2   1807   0.772   2.739   2.883
  452SOL  MW    1808   0.746   2.656   2.878
  453SOL  OW    1809   0.771   2.612   3.246
  453SOL  HW1   1810   0.735   2.674   3.182
  453SOL  HW2   1811   0.861   2.641   3.260
  453SOL  MW    1812   0.778   2.624   3.240
  454SOL  OW    1813   0.742   2.629   3.529
  454SOL  HW1   1814   0.654   2.620   3.494
  454SOL  HW2   1815   0.737   2.702   3.590
  454SOL  MW    1816   0.730   2.637   3.532
  455SOL  OW    1817   0.779   2.579   3.843
  455SOL  HW1   1818   0.780   2.483   3.832
  455SOL  HW2   1819   0.809   2.593   3.933
  455SOL  MW    1820   0.783   2.568   3.853
  456SOL  OW    1821   0.771   2.900   0.125
  456SOL  HW1   1822   0.790   2.993   0.137
  456SOL  HW2   1823   0.831   2.872   0.056
  456SOL  MW    1824   0.781   2.909   0.118
  457SOL  OW    1825   0.744   2.911   0.429
  457SOL  HW1   1826   0.706   2.824   0.440
  457SOL  HW2   1827   0.753   2.921   0.335
  457SOL  MW    1828   0.741   2.901   0.419
  458SOL  OW    1829   0.805   2.915   0.794
  458SOL  HW1   1830   0.766   2.887   0.877
  458SOL  HW2   1831   0.745   2.982   0.760
  458SOL  MW    1832   0.792   2.920   0.800
  459SOL  OW    1833   0.807   2.890   1.089
  459SOL  HW1   1834   0.769   2.826   1.029
  459SOL  HW2   1835   0.737   2.907   1.152
  459SOL  MW    1836   0.793   2.884   1.089
  460SOL  OW    1837   0.799   2.934   1.379
  460SOL  HW1   1838   0.742   2.933   1.302
  460SOL  HW2   1839   0.881   2.895   1.349
  460SOL  MW    1840   0.802   2.929   1.365
  461SOL  OW    1841   0.764   2.886   1.695
  461SOL  HW1   1842   0.855   2.913   1.705
  461SOL  HW2   1843   0.767   2.790   1.691
  461SOL  MW    1844   0.776   2.877   1.696
  462SOL  OW    1845   0.809   2.960   1.963
  462SOL  HW1   1846   0.731   2.904   1.971
  462SOL  HW2   1847   0.817   3.002   2.049
  462SOL  MW    1848   0.800   2.958   1.975
  463SOL  OW    1849   0.786   2.907   2.340
  463SOL  HW1   1850   0.714   2.912   2.403
  463SOL  HW2   1851   0.840   2.835   2.372
  463SOL  MW    1852   0.783   2.899   2.352
  464SOL  OW    1853   0.733   2.958   2.642
  464SOL  HW1   1854   0.716   3.048   2.668
  464SOL  HW2   1855   0.793   2.925   2.709
  464SOL  MW    1856   0.738   2.965   2.654
  465SOL  OW    1857   0.739   2.888   2.950
  465SOL  HW1   1858   0.759   2.874   3.042
  465SOL  HW2   1859   0.701   2.805   2.920
  465SOL  MW    1860   0.736   2.875   2.958
  466SOL  OW    1861   0.742   2.926   3.264
  466SOL  HW1   1862   0.677   2.859   3.287
  466SOL  HW2   1863   0.788   2.943   3.346
  466SOL  MW    1864   0.739   2.920   3.277
  467SOL  OW    1865   0.775   2.915   3.534
  467SOL  HW1   1866   0.771   2.821   3.515
  467SOL  HW2   1867   0.687   2.936   3.567
  467SOL  MW    1868   0.763   2.906   3.536
  468SOL  OW    1869   0.734   2.961   3.831
  468SOL  HW1   1870   0.805   2.982   3.891
  468SOL  HW2   1871   0.708   2.872   3.856
  468SOL  MW    1872   0.740   2.952   3.842
  469SOL  OW    1873   0.744   3.214   0.191
  469SOL  HW1   1874   0.824   3.175   0.155
  469SOL  HW2   1875   0.732   3.295   0.141
  469SOL  MW    1876   0.753   3.219   0.180
  470SOL  OW    1877   0.737   3.260   0.478
  470SOL  HW1   1878   0.779   3.185   0.519
  470SOL  HW2   1879   0.745   3.330   0.543
  470SOL  MW    1880   0.743   3.259   0.492
  471SOL  OW    1881   0.796   3.269   0.797
  471SOL  HW1   1882   0.821   3.178   0.782
  471SOL  HW2   1883   0.708   3.276   0.760
  471SOL  MW    1884   0.788   3.258   0.790
  472SOL  OW    1885   0.805   3.201   1.101
  472SOL  HW1   1886   0.732   3.263   1.105
  472SOL  HW2   1887   0.772   3.122   1.144
  472SOL  MW    1888   0.791   3.199   1.107
  473SOL  OW    1889   0.773   3.234   1.417
  473SOL  HW1   1890   0.683   3.265   1.427
  473SOL  HW2   1891   0.784   3.169   1.485
  473SOL  MW    1892   0.763   3.230   1.427
  474SOL  OW    1893   0.807   3.247   1.691
  474SOL  HW1   1894   0.757   3.174   1.656
  474SOL  HW2   1895   0.835   3.218   1.778
  474SOL  MW    1896   0.804   3.234   1.698
  475SOL  OW    1897   0.766   3.222   1.989
  475SOL  HW1   1898   0.825   3.277   1.938
  475SOL  HW2   1899   0.715   3.173   1.923
  475SOL  MW    1900   0.767   3.223   1.974
  476SOL  OW    1901   0.761   3.198   2.274
  476SOL  HW1   1902   0.732   3.232   2.358
  476SOL  HW2   1903   0.683   3.154   2.238
  476SOL  MW    1904   0.747   3.197   2.280
  477SOL  OW    1905   0.792   3.226   2.650
  477SOL  HW1   1906   0.731   3.296   2.674
  477SOL  HW2   1907   0.787   3.222   2.554
  477SOL  MW    1908   0.783   3.235   2.641
  478SOL  OW    1909   0.778   3.194   2.896
  478SOL  HW1   1910   0.757   3.126   2.960
  478SOL  HW2   1911   0.761   3.152   2.811
  478SOL  MW    1912   0.773   3.180   2.893
  479SOL  OW    1913   0.746   3.269   3.208
  479SOL  HW1   1914   0.759   3.308   3.122
  479SOL  HW2   1915   0.742   3.343   3.268
  479SOL  MW    1916   0.747   3.283   3.205
  480SOL  OW    1917   0.770   3.266   3.577
  480SOL  HW1   1918   0.693   3.217   3.547
  480SOL  HW2   1919   0.821   3.202   3.628
  480SOL  MW    1920   0.767   3.251   3.579
  481SOL  OW    1921   0.748   3.195   3.818
  481SOL  HW1   1922   0.806   3.203   3.894
  481SOL  HW2   1923   0.777   3.263   3.758
  481SOL  MW    1924   0.759   3.205   3.820
  482SOL  OW    1925   0.734   3.514   0.159
  482SOL  HW1   1926   0.666   3.497   0.224
  482SOL  HW2   1927   0.803   3.451   0.180
  482SOL  MW    1928   0.734   3.504   0.170
  483SOL  OW    1929   0.802   3.541   0.472
  483SOL  HW1   1930   0.762   3.522   0.387
  483SOL  HW2   1931   0.846   3.626   0.459
  483SOL  MW    1932   0.803   3.550   0.459
  484SOL  OW    1933   0.745   3.563   0.779
  484SOL  HW1   1934   0.805   3.576   0.705
  484SOL  HW2   1935   0.786   3.494   0.831
  484SOL  MW    1936   0.758   3.555   0.776
  485SOL  OW    1937   0.798   3.574   1.065
  485SOL  HW1   1938   0.771   3.547   1.152
  485SOL  HW2   1939   0.841   3.659   1.078
  485SOL  MW    1940   0.800   3.582   1.078
  486SOL  OW    1941   0.736   3.517   1.380
  486SOL  HW1   1942   0.714   3.595   1.429
  486SOL  HW2   1943   0.726   3.445   1.442
  486SOL  MW    1944   0.732   3.517   1.394
  487SOL  OW    1945   0.805   3.529   1.714
  487SOL  HW1   1946   0.766   3.543   1.628
  487SOL  HW2   1947   0.737   3.555   1.775
  487SOL  MW    1948   0.791   3.534   1.711
  488SOL  OW    1949   0.772   3.513   1.986
  488SOL  HW1   1950   0.795   3.420   1.982
  488SOL  HW2   1951   0.691   3.516   2.037
  488SOL  MW    1952   0.765   3.502   1.992
  489SOL  OW    1953   0.781   3.552   2.302
  489SOL  HW1   1954   0.778   3.606   2.382
  489SOL  HW2   1955   0.723   3.597   2.241
  489SOL  MW    1956   0.774   3.565   2.305
  490SOL  OW    1957   0.748   3.556   2.589
  490SOL  HW1   1958   0.678   3.622   2.595
  490SOL  HW2   1959   0.744   3.510   2.672
  490SOL  MW    1960   0.738   3.559   2.600
  491SOL  OW    1961   0.804   3.513   2.892
  491SOL  HW1   1962   0.869   3.509   2.821
  491SOL  HW2   1963   0.855   3.505   2.972
  491SOL  MW    1964   0.819   3.512   2.893
  492SOL  OW    1965   0.769   3.540   3.231
  492SOL  HW1   1966   0.788   3.446   3.231
  492SOL  HW2   1967   0.718   3.555   3.152
  492SOL  MW    1968   0.765   3.530   3.221
  493SOL  OW    1969   0.764   3.578   3.537
  493SOL  HW1   1970   0.717   3.644   3.487
  493SOL  HW2   1971   0.852   3.578   3.500
  493SOL  MW    1972   0.769   3.587   3.526
  494SOL  OW    1973   0.767   3.532   3.811
  494SOL  HW1   1974   0.782   3.585   3.890
  494SOL  HW2   1975   0.806   3.584   3.741
  494SOL  MW    1976   0.774   3.546   3.813
  495SOL  OW    1977   0.777   3.824   0.165
  495SOL  HW1   1978   0.851   3.809   0.223
  495SOL  HW2   1979   0.711   3.867   0.220
  495SOL  MW    1980   0.778   3.828   0.179
  496SOL  OW    1981   0.733   3.885   0.459
  496SOL  HW1   1982   0.811   3.844   0.420
  496SOL  HW2   1983   0.661   3.825   0.438
  496SOL  MW    1984   0.734   3.872   0.451
  497SOL  OW    1985   0.801   3.844   0.734
  497SOL  HW1   1986   0.743   3.829   0.659
  497SOL  HW2   1987   0.852   3.764   0.741
  497SOL  MW    1988   0.800   3.832   0.725
  498SOL  OW    1989   0.795   3.858   1.099
  498SOL  HW1   1990   0.865   3.839   1.162
  498SOL  HW2   1991   0.779   3.775   1.055
  498SOL  MW    1992   0.802   3.845   1.102
  499SOL  OW    1993   0.763   3.857   1.413
  499SOL  HW1   1994   0.806   3.838   1.497
  499SOL  HW2   1995   0.670   3.853   1.433
  499SOL  MW    1996   0.757   3.854   1.426
  500SOL  OW    1997   0.780   3.834   1.705
  500SOL  HW1   1998   0.839   3.909   1.698
  500SOL  HW2   1999   0.737   3.828   1.620
  500SOL  MW    2000   0.782   3.843   1.693
  501SOL  OW    2001   0.783   3.883   1.990
  501SOL  HW1   2002   0.872   3.868   1.958
  501SOL  HW2   2003   0.735   3.804   1.966
  501SOL  MW    2004   0.788   3.871   1.983
  502SOL  OW    2005   0.763   3.871   2.308
  502SOL  HW1   2006   0.832   3.875   2.375
  502SOL  HW2   2007   0.717   3.789   2.326
  502SOL  MW    2008   0.766   3.861   2.319
  503SOL  OW    2009   0.788   3.843   2.593
  503SOL  HW1   2010   0.710   3.885   2.556
  503SOL  HW2   2011   0.845   3.916   2.618
  503SOL  MW    2012   0.785   3.858   2.591
  504SOL  OW    2013   0.789   3.817   2.899
  504SOL  HW1   2014   0.785   3.817   2.803
  504SOL  HW2   2015   0.878   3.788   2.920
  504SOL  MW    2016   0.800   3.813   2.889
  505SOL  OW    2017   0.779   3.866   3.262
  505SOL  HW1   2018   0.720   3.800   3.297
  505SOL  HW2   2019   0.733   3.949   3.274
  505SOL  MW    2020   0.766   3.868   3.268
  506SOL  OW    2021   0.751   3.815   3.575
  506SOL  HW1   2022   0.828   3.759   3.582
  506SOL  HW2   2023   0.760   3.877   3.648
  506SOL  MW    2024   0.762   3.816   3.585
  507SOL  OW    2025   0.742   3.822   3.829
  507SOL  HW1   2026   0.695   3.892   3.875
  507SOL  HW2   2027   0.724   3.837   3.737
  507SOL  MW    2028   0.733   3.833   3.823
  508SOL  OW    2029   1.079   0.184   0.175
  508SOL  HW1   2030   1.120   0.141   0.250
  508SOL  HW2   2031   1.004   0.129   0.153
  508SOL  MW    2032   1.075   0.172   0.182
  509SOL  OW    2033   1.094   0.128   0.450
  509SOL  HW1   2034   1.041   0.099   0.524
  509SOL  HW2   2035   1.102   0.050   0.395
  509SOL  MW    2036   1.088   0.114   0.453
  510SOL  OW    2037   1.075   0.126   0.751
  510SOL  HW1   2038   1.135   0.116   0.825
  510SOL  HW2   2039   1.078   0.219   0.730
  510SOL  MW    2040   1.083   0.136   0.758
  511SOL  OW    2041   1.062   0.124   1.081
  511SOL  HW1   2042   1.028   0.132   1.170
  511SOL  HW2   2043   1.045   0.209   1.041
  511SOL  MW    2044   1.055   0.136   1.087
  512SOL  OW    2045   1.093   0.119   1.383
  512SOL  HW1   2046   1.008   0.080   1.401
  512SOL  HW2   2047   1.140   0.054   1.331
  512SOL  MW    2048   1.088   0.106   1.379
  513SOL  OW    2049   1.099   0.174   1.718
  513SOL  HW1   2050   1.073   0.257   1.757
  513SOL  HW2   2051   1.017   0.127   1.703
  513SOL  MW    2052   1.086   0.178   1.721
  514SOL  OW    2053   1.073   0.179   1.979
  514SOL  HW1   2054   0.984   0.215   1.984
  514SOL  HW2   2055   1.105   0.185   2.069
  514SOL  MW    2056   1.066   0.185   1.991
  515SOL  OW    2057   1.066   0.128   2.305
  515SOL  HW1   2058   0.974   0.156   2.309
  515SOL  HW2   2059   1.066   0.054   2.245
  515SOL  MW    2060   1.054   0.122   2.298
  516SOL  OW    2061   1.068   0.133   2.636
  516SOL  HW1   2062   1.074   0.088   2.551
  516SOL  HW2   2063   1.046   0.224   2.613
  516SOL  MW    2064   1.066   0.139   2.622
  517SOL  OW    2065   1.062   0.136   2.894
  517SOL  HW1   2066   1.141   0.170   2.936
  517SOL  HW2   2067   1.078   0.148   2.800
  517SOL  MW    2068   1.074   0.142   2.887
  518SOL  OW    2069   1.072   0.138   3.220
  518SOL  HW1   2070   1.124   0.088   3.158
  518SOL  HW2   2071   1.128   0.211   3.245
  518SOL  MW    2072   1.086   0.141   3.215
  519SOL  OW    2073   1.056   0.175   3.573
  519SOL  HW1   2074   0.995   0.240   3.608
  519SOL  HW2   2075   1.066   0.199   3.481
  519SOL  MW    2076   1.049   0.186   3.566
  520SOL  OW    2077   1.077   0.165   3.876
  520SOL  HW1   2078   1.016   0.219   3.824
  520SOL  HW2   2079   1.077   0.080   3.831
  520SOL  MW    2080   1.069   0.161   3.863
  521SOL  OW    2081   1.117   0.471   0.185
  521SOL  HW1   2082   1.052   0.528   0.144
  521SOL  HW2   2083   1.167   0.528   0.243
  521SOL  MW    2084   1.115   0.485   0.187
  522SOL  OW    2085   1.110   0.485   0.458
  522SOL  HW1   2086   1.023   0.498   0.496
  522SOL  HW2   2087   1.170   0.498   0.531
  522SOL  MW    2088   1.106   0.488   0.473
  523SOL  OW    2089   1.043   0.423   0.767
  523SOL  HW1   2090   1.115   0.363   0.791
  523SOL  HW2   2091   1.070   0.460   0.683
  523SOL  MW    2092   1.056   0.420   0.760
  524SOL  OW    2093   1.076   0.454   1.082
  524SOL  HW1   2094   1.102   0.498   1.163
  524SOL  HW2   2095   1.125   0.500   1.014
  524SOL  MW    2096   1.086   0.466   1.084
  525SOL  OW    2097   1.081   0.488   1.353
  525SOL  HW1   2098   1.115   0.446   1.275
  525SOL  HW2   2099   1.159   0.511   1.404
  525SOL  MW    2100   1.095   0.486   1.350
  526SOL  OW    2101   1.055   0.485   1.720
  526SOL  HW1   2102   1.094   0.445   1.798
  526SOL  HW2   2103   0.983   0.539   1.754
  526SOL  MW    2104   1.051   0.487   1.734
  527SOL  OW    2105   1.117   0.491   2.031
  527SOL  HW1   2106   1.193   0.542   2.060
  527SOL  HW2   2107   1.067   0.475   2.112
  527SOL  MW    2108   1.120   0.496   2.045
  528SOL  OW    2109   1.062   0.454   2.289
  528SOL  HW1   2110   0.975   0.463   2.328
  528SOL  HW2   2111   1.085   0.542   2.259
  528SOL  MW    2112   1.054   0.466   2.290
  529SOL  OW    2113   1.085   0.497   2.603
  529SOL  HW1   2114   0.992   0.488   2.586
  529SOL  HW2   2115   1.109   0.416   2.650
  529SOL  MW    2116   1.076   0.485   2.607
  530SOL  OW    2117   1.081   0.445   2.897
  530SOL  HW1   2118   1.066   0.517   2.958
  530SOL  HW2   2119   1.069   0.484   2.810
  530SOL  MW    2120   1.078   0.459   2.893
  531SOL  OW    2121   1.053   0.426   3.267
  531SOL  HW1   2122   0.997   0.350   3.284
  531SOL  HW2   2123   0.991   0.498   3.252
  531SOL  MW    2124   1.038   0.426   3.267
  532SOL  OW    2125   1.069   0.488   3.553
  532SOL  HW1   2126   1.102   0.444   3.631
  532SOL  HW2   2127   1.072   0.581   3.575
  532SOL  MW    2128   1.074   0.494   3.566
  533SOL  OW    2129   1.052   0.436   3.871
  533SOL  HW1   2130   1.070   0.512   3.816
  533SOL  HW2   2131   1.093   0.456   3.955
  533SOL  MW    2132   1.060   0.448   3.875
  534SOL  OW    2133   1.058   0.802   0.125
  534SOL  HW1   2134   1.024   0.756   0.202
  534SOL  HW2   2135   1.019   0.890   0.131
  534SOL  MW    2136   1.049   0.808   0.136
  535SOL  OW    2137   1.091   0.794   0.440
  535SOL  HW1   2138   1.005   0.791   0.482
  535SOL  HW2   2139   1.146   0.736   0.493
  535SOL  MW    2140   1.087   0.787   0.452
  536SOL  OW    2141   1.059   0.806   0.750
  536SOL  HW1   2142   1.066   0.901   0.737
  536SOL  HW2   2143   0.984   0.780   0.697
  536SOL  MW    2144   1.050   0.815   0.742
  537SOL  OW    2145   1.071   0.764   1.057
  537SOL  HW1   2146   1.101   0.833   0.998
  537SOL  HW2   2147   1.074   0.684   1.004
  537SOL  MW    2148   1.076   0.763   1.043
  538SOL  OW    2149   1.099   0.791   1.375
  538SOL  HW1   2150   1.144   0.770   1.456
  538SOL  HW2   2151   1.168   0.819   1.315
  538SOL  MW    2152   1.114   0.792   1.378
  539SOL  OW    2153   1.104   0.746   1.653
  539SOL  HW1   2154   1.182   0.767   1.704
  539SOL  HW2   2155   1.109   0.805   1.577
  539SOL  MW    2156   1.114   0.756   1.650
  540SOL  OW    2157   1.083   0.809   1.963
  540SOL  HW1   2158   1.133   0.856   2.030
  540SOL  HW2   2159   0.998   0.791   2.004
  540SOL  MW    2160   1.078   0.813   1.977
  541SOL  OW    2161   1.054   0.771   2.332
  541SOL  HW1   2162   0.983   0.711   2.308
  541SOL  HW2   2163   1.105   0.722   2.397
  541SOL  MW    2164   1.051   0.757   2.338
  542SOL  OW    2165   1.044   0.761   2.635
  542SOL  HW1   2166   1.023   0.808   2.554
  542SOL  HW2   2167   1.122   0.709   2.613
  542SOL  MW    2168   1.051   0.760   2.622
  543SOL  OW    2169   1.067   0.744   2.899
  543SOL  HW1   2170   1.020   0.772   2.820
  543SOL  HW2   2171   1.061   0.820   2.958
  543SOL  MW    2172   1.060   0.758   2.896
  544SOL  OW    2173   1.070   0.768   3.260
  544SOL  HW1   2174   1.093   0.738   3.348
  544SOL  HW2   2175   1.136   0.833   3.238
  544SOL  MW    2176   1.081   0.772   3.268
  545SOL  OW    2177   1.088   0.784   3.577
  545SOL  HW1   2178   1.094   0.692   3.601
  545SOL  HW2   2179   1.033   0.786   3.499
  545SOL  MW    2180   1.082   0.773   3.570
  546SOL  OW    2181   1.070   0.761   3.880
  546SOL  HW1   2182   1.021   0.702   3.823
  546SOL  HW2   2183   1.037   0.849   3.858
  546SOL  MW    2184   1.059   0.765   3.870
  547SOL  OW    2185   1.057   1.095   0.174
  547SOL  HW1   2186   0.972   1.129   0.204
  547SOL  HW2   2187   1.059   1.117   0.081
  547SOL  MW    2188   1.046   1.102   0.166
  548SOL  OW    2189   1.045   1.074   0.438
  548SOL  HW1   2190   1.067   0.987   0.404
  548SOL  HW2   2191   0.970   1.060   0.496
  548SOL  MW    2192   1.038   1.061   0.441
  549SOL  OW    2193   1.052   1.074   0.752
  549SOL  HW1   2194   1.019   0.996   0.797
  549SOL  HW2   2195   1.124   1.105   0.807
  549SOL  MW    2196   1.057   1.068   0.765
  550SOL  OW    2197   1.101   1.110   1.101
  550SOL  HW1   2198   1.011   1.079   1.113
  550SOL  HW2   2199   1.092   1.195   1.060
  550SOL  MW    2200   1.088   1.117   1.097
  551SOL  OW    2201   1.058   1.059   1.365
  551SOL  HW1   2202   1.022   1.118   1.431
  551SOL  HW2   2203   1.089   0.983   1.415
  551SOL  MW    2204   1.058   1.057   1.380
  552SOL  OW    2205   1.048   1.112   1.684
  552SOL  HW1   2206   1.058   1.018   1.692
  552SOL  HW2   2207   1.007   1.125   1.599
  552SOL  MW    2208   1.044   1.102   1.675
  553SOL  OW    2209   1.055   1.105   1.992
  553SOL  HW1   2210   1.147   1.080   2.003
  553SOL  HW2   2211   1.014   1.026   1.955
  553SOL  MW    2212   1.061   1.092   1.989
  554SOL  OW    2213   1.040   1.050   2.319
  554SOL  HW1   2214   1.038   1.033   2.225
  554SOL  HW2   2215   1.091   1.130   2.328
  554SOL  MW    2216   1.046   1.058   2.308
  555SOL  OW    2217   1.100   1.054   2.649
  555SOL  HW1   2218   1.088   1.020   2.738
  555SOL  HW2   2219   1.018   1.033   2.604
  555SOL  MW    2220   1.088   1.047   2.654
  556SOL  OW    2221   1.105   1.105   2.901
  556SOL  HW1   2222   1.093   1.099   2.807
  556SOL  HW2   2223   1.016   1.100   2.937
  556SOL  MW    2224   1.092   1.103   2.894
  557SOL  OW    2225   1.041   1.106   3.215
  557SOL  HW1   2226   0.954   1.140   3.236
  557SOL  HW2   2227   1.082   1.176   3.163
  557SOL  MW    2228   1.035   1.119   3.211
  558SOL  OW    2229   1.086   1.098   3.509
  558SOL  HW1   2230   0.993   1.091   3.529
  558SOL  HW2   2231   1.130   1.078   3.591
  558SOL  MW    2232   1.080   1.094   3.522
  559SOL  OW    2233   1.099   1.112   3.864
  559SOL  HW1   2234   1.132   1.138   3.951
  559SOL  HW2   2235   1.054   1.029   3.880
  559SOL  MW    2236   1.098   1.105   3.877
  560SOL  OW    2237   1.072   1.415   0.156
  560SOL  HW1   2238   1.024   1.496   0.144
  560SOL  HW2   2239   1.010   1.346   0.133
  560SOL  MW    2240   1.058   1.416   0.152
  561SOL  OW    2241   1.097   1.410   0.481
  561SOL  HW1   2242   1.165   1.351   0.514
  561SOL  HW2   2243   1.059   1.449   0.561
  561SOL  MW    2244   1.100   1.408   0.496
  562SOL  OW    2245   1.060   1.354   0.748
  562SOL  HW1   2246   1.132   1.294   0.767
  562SOL  HW2   2247   1.100   1.426   0.699
  562SOL  MW    2248   1.074   1.356   0.744
  563SOL  OW    2249   1.077   1.385   1.084
  563SOL  HW1   2250   1.105   1.417   1.169
  563SOL  HW2   2251   0.988   1.354   1.098
  563SOL  MW    2252   1.069   1.385   1.096
  564SOL  OW    2253   1.069   1.408   1.418
  564SOL  HW1   2254   1.135   1.445   1.475
  564SOL  HW2   2255   1.021   1.483   1.382
  564SOL  MW    2256   1.071   1.422   1.420
  565SOL  OW    2257   1.057   1.404   1.707
  565SOL  HW1   2258   1.017   1.490   1.701
  565SOL  HW2   2259   1.094   1.389   1.620
  565SOL  MW    2260   1.056   1.413   1.695
  566SOL  OW    2261   1.079   1.360   2.024
  566SOL  HW1   2262   1.104   1.319   2.107
  566SOL  HW2   2263   1.091   1.453   2.038
  566SOL  MW    2264   1.084   1.367   2.036
  567SOL  OW    2265   1.114   1.402   2.341
  567SOL  HW1   2266   1.177   1.474   2.349
  567SOL  HW2   2267   1.153   1.330   2.390
  567SOL  MW    2268   1.127   1.402   2.348
  568SOL  OW    2269   1.116   1.373   2.626
  568SOL  HW1   2270   1.129   1.309   2.556
  568SOL  HW2   2271   1.108   1.457   2.582
  568SOL  MW    2272   1.116   1.375   2.612
  569SOL  OW    2273   1.075   1.424   2.891
  569SOL  HW1   2274   1.101   1.442   2.981
  569SOL  HW2   2275   1.105   1.500   2.841
  569SOL  MW    2276   1.082   1.436   2.896
  570SOL  OW    2277   1.070   1.415   3.213
  570SOL  HW1   2278   1.049   1.381   3.126
  570SOL  HW2   2279   1.092   1.337   3.264
  570SOL  MW    2280   1.070   1.400   3.209
  571SOL  OW    2281   1.100   1.375   3.577
  571SOL  HW1   2282   1.194   1.375   3.558
  571SOL  HW2   2283   1.066   1.452   3.530
  571SOL  MW    2284   1.108   1.385   3.568
  572SOL  OW    2285   1.108   1.369   3.868
  572SOL  HW1   2286   1.123   1.396   3.777
  572SOL  HW2   2287   1.016   1.340   3.869
  572SOL  MW    2288   1.098   1.369   3.856
  573SOL  OW    2289   1.064   1.701   0.167
  573SOL  HW1   2290   0.981   1.663   0.138
  573SOL  HW2   2291   1.049   1.795   0.165
  573SOL  MW    2292   1.051   1.708   0.163
  574SOL  OW    2293   1.103   1.654   0.439
  574SOL  HW1   2294   1.125   1.561   0.431
  574SOL  HW2   2295   1.015   1.661   0.404
  574SOL  MW    2296   1.095   1.643   0.434
  575SOL  OW    2297   1.094   1.697   0.769
  575SOL  HW1   2298   1.152   1.642   0.716
  575SOL  HW2   2299   1.124   1.787   0.752
  575SOL  MW    2300   1.105   1.702   0.760
  576SOL  OW    2301   1.041   1.680   1.106
  576SOL  HW1   2302   1.025   1.704   1.197
  576SOL  HW2   2303   1.019   1.587   1.102
  576SOL  MW    2304   1.036   1.671   1.117
  577SOL  OW    2305   1.039   1.684   1.420
  577SOL  HW1   2306   1.106   1.655   1.358
  577SOL  HW2   2307   0.992   1.753   1.374
  577SOL  MW    2308   1.042   1.689   1.406
  578SOL  OW    2309   1.041   1.712   1.673
  578SOL  HW1   2310   1.118   1.661   1.697
  578SOL  HW2   2311   0.986   1.712   1.751
  578SOL  MW    2312   1.044   1.706   1.686
  579SOL  OW    2313   1.106   1.712   2.031
  579SOL  HW1   2314   1.155   1.630   2.025
  579SOL  HW2   2315   1.162   1.770   2.083
  579SOL  MW    2316   1.120   1.709   2.037
  580SOL  OW    2317   1.054   1.695   2.330
  580SOL  HW1   2318   1.004   1.649   2.398
  580SOL  HW2   2319   0.993   1.703   2.257
  580SOL  MW    2320   1.040   1.690   2.329
  581SOL  OW    2321   1.057   1.671   2.578
  581SOL  HW1   2322   1.099   1.721   2.508
  581SOL  HW2   2323   0.966   1.661   2.549
  581SOL  MW    2324   1.050   1.676   2.565
  582SOL  OW    2325   1.114   1.709   2.934
  582SOL  HW1   2326   1.199   1.725   2.894
  582SOL  HW2   2327   1.134   1.668   3.018
  582SOL  MW    2328   1.127   1.706   2.939
  583SOL  OW    2329   1.096   1.695   3.229
  583SOL  HW1   2330   1.117   1.657   3.143
  583SOL  HW2   2331   1.148   1.644   3.291
  583SOL  MW    2332   1.106   1.683   3.226
  584SOL  OW    2333   1.073   1.704   3.515
  584SOL  HW1   2334   1.112   1.638   3.456
  584SOL  HW2   2335   1.133   1.709   3.589
  584SOL  MW    2336   1.086   1.696   3.517
  585SOL  OW    2337   1.108   1.717   3.834
  585SOL  HW1   2338   1.191   1.686   3.869
  585SOL  HW2   2339   1.094   1.802   3.877
  585SOL  MW    2340   1.117   1.724   3.844
  586SOL  OW    2341   1.083   1.971   0.192
  586SOL  HW1   2342   0.996   1.952   0.157
  586SOL  HW2   2343   1.112   2.048   0.142
  586SOL  MW    2344   1.076   1.979   0.181
  587SOL  OW    2345   1.109   2.034   0.448
  587SOL  HW1   2346   1.186   1.979   0.465
  587SOL  HW2   2347   1.054   2.022   0.525
  587SOL  MW    2348   1.112   2.025   0.460
  588SOL  OW    2349   1.050   1.977   0.736
  588SOL  HW1   2350   0.987   2.033   0.692
  588SOL  HW2   2351   1.026   1.888   0.711
  588SOL  MW    2352   1.039   1.973   0.727
  589SOL  OW    2353   1.047   1.966   1.116
  589SOL  HW1   2354   1.027   1.901   1.184
  589SOL  HW2   2355   0.961   1.999   1.089
  589SOL  MW    2356   1.033   1.962   1.121
  590SOL  OW    2357   1.043   1.971   1.411
  590SOL  HW1   2358   1.017   1.879   1.420
  590SOL  HW2   2359   1.016   1.994   1.322
  590SOL  MW    2360   1.036   1.962   1.401
  591SOL  OW    2361   1.083   2.022   1.703
  591SOL  HW1   2362   1.005   2.004   1.755
  591SOL  HW2   2363   1.093   1.945   1.647
  591SOL  MW    2364   1.075   2.010   1.702
  592SOL  OW    2365   1.107   2.011   2.002
  592SOL  HW1   2366   1.067   1.961   2.072
  592SOL  HW2   2367   1.138   2.091   2.044
  592SOL  MW    2368   1.106   2.015   2.016
  593SOL  OW    2369   1.094   1.996   2.295
  593SOL  HW1   2370   1.024   1.937   2.324
  593SOL  HW2   2371   1.053   2.050   2.228
  593SOL  MW    2372   1.080   1.995   2.290
  594SOL  OW    2373   1.074   1.974   2.639
  594SOL  HW1   2374   1.080   2.028   2.717
  594SOL  HW2   2375   1.123   2.022   2.572
  594SOL  MW    2376   1.081   1.987   2.641
  595SOL  OW    2377   1.058   1.972   2.903
  595SOL  HW1   2378   1.150   1.989   2.885
  595SOL  HW2   2379   1.028   2.049   2.952
  595SOL  MW    2380   1.066   1.984   2.907
  596SOL  OW    2381   1.104   1.986   3.246
  596SOL  HW1   2382   1.099   2.052   3.315
  596SOL  HW2   2383   1.024   1.936   3.255
  596SOL  MW    2384   1.093   1.988   3.256
  597SOL  OW    2385   1.105   1.966   3.560
  597SOL  HW1   2386   1.194   1.986   3.529
  597SOL  HW2   2387   1.072   2.050   3.590
  597SOL  MW    2388   1.112   1.979   3.560
  598SOL  OW    2389   1.062   1.977   3.861
  598SOL  HW1   2390   1.139   1.938   3.901
  598SOL  HW2   2391   1.052   1.932   3.777
  598SOL  MW    2392   1.070   1.967   3.856
  599SOL  OW    2393   1.110   2.291   0.159
  599SOL  HW1   2394   1.195   2.289   0.203
  599SOL  HW2   2395   1.049   2.322   0.227
  599SOL  MW    2396   1.113   2.295   0.174
  600SOL  OW    2397   1.060   2.312   0.471
  600SOL  HW1   2398   1.122   2.357   0.413
  600SOL  HW2   2399   1.048   2.372   0.545
  600SOL  MW    2400   1.066   2.325   0.473
  601SOL  OW    2401   1.086   2.318   0.740
  601SOL  HW1   2402   1.127   2.355   0.662
  601SOL  HW2   2403   1.091   2.387   0.806
  601SOL  MW    2404   1.092   2.331   0.738
  602SOL  OW    2405   1.092   2.322   1.092
  602SOL  HW1   2406   1.048   2.239   1.074
  602SOL  HW2   2407   1.181   2.296   1.118
  602SOL  MW    2408   1.098   2.308   1.093
  603SOL  OW    2409   1.043   2.303   1.377
  603SOL  HW1   2410   0.958   2.278   1.415
  603SOL  HW2   2411   1.097   2.327   1.453
  603SOL  MW    2412   1.039   2.303   1.392
  604SOL  OW    2413   1.044   2.285   1.688
  604SOL  HW1   2414   1.108   2.305   1.619
  604SOL  HW2   2415   0.978   2.354   1.679
  604SOL  MW    2416   1.044   2.297   1.678
  605SOL  OW    2417   1.096   2.287   2.026
  605SOL  HW1   2418   1.038   2.213   2.043
  605SOL  HW2   2419   1.104   2.331   2.111
  605SOL  MW    2420   1.090   2.283   2.039
  606SOL  OW    2421   1.081   2.329   2.305
  606SOL  HW1   2422   1.171   2.352   2.284
  606SOL  HW2   2423   1.089   2.266   2.377
  606SOL  MW    2424   1.093   2.323   2.312
  607SOL  OW    2425   1.077   2.317   2.650
  607SOL  HW1   2426   1.059   2.409   2.671
  607SOL  HW2   2427   0.996   2.271   2.671
  607SOL  MW    2428   1.064   2.323   2.655
  608SOL  OW    2429   1.076   2.310   2.931
  608SOL  HW1   2430   0.981   2.307   2.944
  608SOL  HW2   2431   1.090   2.383   2.871
  608SOL  MW    2432   1.066   2.319   2.925
  609SOL  OW    2433   1.096   2.273   3.232
  609SOL  HW1   2434   1.048   2.194   3.256
  609SOL  HW2   2435   1.096   2.327   3.311
  609SOL  MW    2436   1.090   2.270   3.245
  610SOL  OW    2437   1.075   2.341   3.538
  610SOL  HW1   2438   1.164   2.377   3.534
  610SOL  HW2   2439   1.046   2.340   3.447
  610SOL  MW    2440   1.083   2.346   3.526
  611SOL  OW    2441   1.074   2.345   3.842
  611SOL  HW1   2442   1.065   2.250   3.846
  611SOL  HW2   2443   0.991   2.379   3.875
  611SOL  MW    2444   1.062   2.337   3.847
  612SOL  OW    2445   1.051   2.593   0.121
  612SOL  HW1   2446   1.096   2.645   0.055
  612SOL  HW2   2447   1.104   2.605   0.200
  612SOL  MW    2448   1.064   2.601   0.123
  613SOL  OW    2449   1.037   2.610   0.483
  613SOL  HW1   2450   1.091   2.541   0.522
  613SOL  HW2   2451   1.027   2.675   0.553
  613SOL  MW    2452   1.043   2.609   0.497
  614SOL  OW    2453   1.096   2.578   0.775
  614SOL  HW1   2454   1.150   2.611   0.703
  614SOL  HW2   2455   1.043   2.508   0.735
  614SOL  MW    2456   1.096   2.573   0.761
  615SOL  OW    2457   1.049   2.651   1.050
  615SOL  HW1   2458   0.969   2.692   1.018
  615SOL  HW2   2459   1.050   2.670   1.144
  615SOL  MW    2460   1.039   2.658   1.058
  616SOL  OW    2461   1.087   2.601   1.396
  616SOL  HW1   2462   1.056   2.691   1.408
  616SOL  HW2   2463   1.163   2.594   1.454
  616SOL  MW    2464   1.093   2.612   1.405
  617SOL  OW    2465   1.070   2.636   1.671
  617SOL  HW1   2466   1.068   2.607   1.762
  617SOL  HW2   2467   1.159   2.619   1.642
  617SOL  MW    2468   1.081   2.630   1.679
  618SOL  OW    2469   1.109   2.615   2.020
  618SOL  HW1   2470   1.131   2.681   1.954
  618SOL  HW2   2471   1.192   2.600   2.067
  618SOL  MW    2472   1.123   2.622   2.018
  619SOL  OW    2473   1.105   2.655   2.286
  619SOL  HW1   2474   1.080   2.602   2.210
  619SOL  HW2   2475   1.146   2.593   2.346
  619SOL  MW    2476   1.107   2.641   2.284
  620SOL  OW    2477   1.060   2.595   2.596
  620SOL  HW1   2478   1.155   2.592   2.609
  620SOL  HW2   2479   1.026   2.526   2.653
  620SOL  MW    2480   1.068   2.586   2.605
  621SOL  OW    2481   1.084   2.655   2.962
  621SOL  HW1   2482   1.165   2.667   2.913
  621SOL  HW2   2483   1.048   2.572   2.930
  621SOL  MW    2484   1.089   2.646   2.952
  622SOL  OW    2485   1.079   2.627   3.260
  622SOL  HW1   2486   1.114   2.691   3.198
  622SOL  HW2   2487   1.104   2.542   3.222
  622SOL  MW    2488   1.087   2.624   3.247
  623SOL  OW    2489   1.112   2.592   3.541
  623SOL  HW1   2490   1.016   2.587   3.536
  623SOL  HW2   2491   1.138   2.509   3.582
  623SOL  MW    2492   1.103   2.581   3.545
  624SOL  OW    2493   1.104   2.600   3.841
  624SOL  HW1   2494   1.031   2.554   3.799
  624SOL  HW2   2495   1.122   2.548   3.920
  624SOL  MW    2496   1.097   2.587   3.846
  625SOL  OW    2497   1.116   2.962   0.186
  625SOL  HW1   2498   1.027   2.994   0.203
  625SOL  HW2   2499   1.112   2.868   0.206
  625SOL  MW    2500   1.104   2.954   0.191
  626SOL  OW    2501   1.101   2.905   0.447
  626SOL  HW1   2502   1.196   2.902   0.437
  626SOL  HW2   2503   1.081   2.998   0.458
  626SOL  MW    2504   1.110   2.916   0.447
  627SOL  OW    2505   1.081   2.928   0.770
  627SOL  HW1   2506   1.104   2.979   0.692
  627SOL  HW2   2507   1.147   2.951   0.835
  627SOL  MW    2508   1.092   2.938   0.768
  628SOL  OW    2509   1.088   2.916   1.097
  628SOL  HW1   2510   1.146   2.985   1.065
  628SOL  HW2   2511   1.048   2.879   1.018
  628SOL  MW    2512   1.090   2.920   1.083
  629SOL  OW    2513   1.064   2.910   1.355
  629SOL  HW1   2514   1.089   2.834   1.408
  629SOL  HW2   2515   1.133   2.974   1.370
  629SOL  MW    2516   1.076   2.908   1.364
  630SOL  OW    2517   1.052   2.951   1.688
  630SOL  HW1   2518   1.077   3.033   1.732
  630SOL  HW2   2519   1.117   2.887   1.717
  630SOL  MW    2520   1.064   2.953   1.697
  631SOL  OW    2521   1.055   2.944   2.004
  631SOL  HW1   2522   1.075   2.853   2.025
  631SOL  HW2   2523   1.114   2.995   2.061
  631SOL  MW    2524   1.065   2.939   2.014
  632SOL  OW    2525   1.039   2.908   2.282
  632SOL  HW1   2526   0.988   2.829   2.302
  632SOL  HW2   2527   1.004   2.975   2.341
  632SOL  MW    2528   1.028   2.907   2.292
  633SOL  OW    2529   1.089   2.905   2.581
  633SOL  HW1   2530   1.107   2.814   2.557
  633SOL  HW2   2531   1.108   2.910   2.674
  633SOL  MW    2532   1.094   2.894   2.590
  634SOL  OW    2533   1.041   2.930   2.885
  634SOL  HW1   2534   1.017   2.871   2.957
  634SOL  HW2   2535   1.122   2.972   2.914
  634SOL  MW    2536   1.049   2.928   2.898
  635SOL  OW    2537   1.105   2.896   3.239
  635SOL  HW1   2538   1.009   2.898   3.239
  635SOL  HW2   2539   1.126   2.806   3.264
  635SOL  MW    2540   1.095   2.884   3.242
  636SOL  OW    2541   1.072   2.919   3.504
  636SOL  HW1   2542   1.080   2.829   3.538
  636SOL  HW2   2543   1.120   2.972   3.568
  636SOL  MW    2544   1.080   2.914   3.517
  637SOL  OW    2545   1.101   2.955   3.807
  637SOL  HW1   2546   1.112   3.011   3.731
  637SOL  HW2   2547   1.091   2.867   3.771
  637SOL  MW    2548   1.101   2.951   3.793
  638SOL  OW    2549   1.051   3.263   0.158
  638SOL  HW1   2550   1.095   3.199   0.102
  638SOL  HW2   2551   1.105   3.267   0.237
  638SOL  MW    2552   1.064   3.255   0.161
  639SOL  OW    2553   1.049   3.207   0.474
  639SOL  HW1   2554   1.095   3.220   0.557
  639SOL  HW2   2555   1.117   3.215   0.408
  639SOL  MW    2556   1.064   3.210   0.476
  640SOL  OW    2557   1.095   3.239   0.805
  640SOL  HW1   2558   1.082   3.256   0.899
  640SOL  HW2   2559   1.081   3.144   0.797
  640SOL  MW    2560   1.091   3.229   0.816
  641SOL  OW    2561   1.076   3.215   1.075
  641SOL  HW1   2562   0.994   3.259   1.056
  641SOL  HW2   2563   1.138   3.286   1.094
  641SOL  MW    2564   1.074   3.230   1.075
  642SOL  OW    2565   1.066   3.209   1.348
  642SOL  HW1   2566   1.050   3.300   1.323
  642SOL  HW2   2567   1.153   3.209   1.388
  642SOL  MW    2568   1.075   3.220   1.350
  643SOL  OW    2569   1.065   3.248   1.654
  643SOL  HW1   2570   1.142   3.271   1.706
  643SOL  HW2   2571   1.088   3.164   1.613
  643SOL  MW    2572   1.078   3.240   1.655
  644SOL  OW    2573   1.072   3.242   2.009
  644SOL  HW1   2574   0.982   3.231   1.978
  644SOL  HW2   2575   1.086   3.337   2.008
  644SOL  MW    2576   1.062   3.253   2.005
  645SOL  OW    2577   1.099   3.256   2.325
  645SOL  HW1   2578   1.062   3.269   2.237
  645SOL  HW2   2579   1.176   3.312   2.327
  645SOL  MW    2580   1.104   3.264   2.314
  646SOL  OW    2581   1.045   3.229   2.624
  646SOL  HW1   2582   0.970   3.193   2.577
  646SOL  HW2   2583   1.023   3.218   2.716
  646SOL  MW    2584   1.033   3.223   2.630
  647SOL  OW    2585   1.057   3.194   2.901
  647SOL  HW1   2586   1.101   3.272   2.935
  647SOL  HW2   2587   1.124   3.127   2.900
  647SOL  MW    2588   1.071   3.196   2.905
  648SOL  OW    2589   1.073   3.224   3.205
  648SOL  HW1   2590   1.161   3.188   3.218
  648SOL  HW2   2591   1.041   3.240   3.294
  648SOL  MW    2592   1.080   3.221   3.218
  649SOL  OW    2593   1.103   3.265   3.515
  649SOL  HW1   2594   1.130   3.334   3.454
  649SOL  HW2   2595   1.149   3.187   3.484
  649SOL  MW    2596   1.112   3.264   3.503
  650SOL  OW    2597   1.111   3.192   3.880
  650SOL  HW1   2598   1.190   3.148   3.912
  650SOL  HW2   2599   1.099   3.159   3.791
  650SOL  MW    2600   1.120   3.182   3.873
  651SOL  OW    2601   1.113   3.499   0.175
  651SOL  HW1   2602   1.190   3.453   0.142
  651SOL  HW2   2603   1.041   3.437   0.164
  651SOL  MW    2604   1.114   3.486   0.169
  652SOL  OW    2605   1.115   3.571   0.499
  652SOL  HW1   2606   1.165   3.602   0.424
  652SOL  HW2   2607   1.162   3.604   0.575
  652SOL  MW    2608   1.127   3.579   0.499
  653SOL  OW    2609   1.081   3.505   0.797
  653SOL  HW1   2610   1.093   3.596   0.770
  653SOL  HW2   2611   1.037   3.511   0.882
  653SOL  MW    2612   1.077   3.517   0.805
  654SOL  OW    2613   1.086   3.548   1.070
  654SOL  HW1   2614   1.019   3.593   1.019
  654SOL  HW2   2615   1.082   3.589   1.157
  654SOL  MW    2616   1.077   3.559   1.075
  655SOL  OW    2617   1.083   3.511   1.404
  655SOL  HW1   2618   1.059   3.469   1.487
  655SOL  HW2   2619   1.014   3.576   1.389
  655SOL  MW    2620   1.071   3.514   1.413
  656SOL  OW    2621   1.043   3.557   1.720
  656SOL  HW1   2622   1.037   3.586   1.811
  656SOL  HW2   2623   0.956   3.573   1.685
  656SOL  MW    2624   1.031   3.563   1.727
  657SOL  OW    2625   1.075   3.539   1.985
  657SOL  HW1   2626   1.018   3.478   2.032
  657SOL  HW2   2627   1.055   3.524   1.892
  657SOL  MW    2628   1.065   3.530   1.979
  658SOL  OW    2629   1.114   3.557   2.297
  658SOL  HW1   2630   1.019   3.559   2.301
  658SOL  HW2   2631   1.135   3.488   2.235
  658SOL  MW    2632   1.105   3.548   2.290
  659SOL  OW    2633   1.051   3.516   2.612
  659SOL  HW1   2634   1.114   3.475   2.672
  659SOL  HW2   2635   1.040   3.605   2.646
  659SOL  MW    2636   1.058   3.522   2.624
  660SOL  OW    2637   1.112   3.557   2.900
  660SOL  HW1   2638   1.056   3.634   2.891
  660SOL  HW2   2639   1.080   3.513   2.979
  660SOL  MW    2640   1.101   3.561   2.909
  661SOL  OW    2641   1.106   3.529   3.259
  661SOL  HW1   2642   1.041   3.531   3.330
  661SOL  HW2   2643   1.138   3.439   3.259
  661SOL  MW    2644   1.102   3.518   3.268
  662SOL  OW    2645   1.056   3.548   3.573
  662SOL  HW1   2646   1.110   3.470   3.586
  662SOL  HW2   2647   0.967   3.515   3.565
  662SOL  MW    2648   1.052   3.534   3.573
  663SOL  OW    2649   1.058   3.554   3.885
  663SOL  HW1   2650   1.096   3.598   3.961
  663SOL  HW2   2651   1.132   3.517   3.838
  663SOL  MW    2652   1.072   3.555   3.889
  664SOL  OW    2653   1.049   3.813   0.168
  664SOL  HW1   2654   1.087   3.895   0.136
  664SOL  HW2   2655   0.954   3.828   0.167
  664SOL  MW    2656   1.042   3.826   0.164
  665SOL  OW    2657   1.064   3.812   0.460
  665SOL  HW1   2658   1.015   3.809   0.542
  665SOL  HW2   2659   1.114   3.730   0.459
  665SOL  MW    2660   1.064   3.801   0.470
  666SOL  OW    2661   1.097   3.829   0.756
  666SOL  HW1   2662   1.095   3.733   0.755
  666SOL  HW2   2663   1.189   3.851   0.742
  666SOL  MW    2664   1.109   3.819   0.754
  667SOL  OW    2665   1.105   3.848   1.104
  667SOL  HW1   2666   1.014   3.830   1.128
  667SOL  HW2   2667   1.107   3.942   1.087
  667SOL  MW    2668   1.093   3.857   1.105
  668SOL  OW    2669   1.073   3.882   1.397
  668SOL  HW1   2670   1.075   3.792   1.427
  668SOL  HW2   2671   0.986   3.893   1.357
  668SOL  MW    2672   1.062   3.872   1.395
  669SOL  OW    2673   1.046   3.877   1.691
  669SOL  HW1   2674   0.966   3.910   1.652
  669SOL  HW2   2675   1.017   3.828   1.768
  669SOL  MW    2676   1.032   3.875   1.696
  670SOL  OW    2677   1.048   3.818   2.015
  670SOL  HW1   2678   1.139   3.835   1.988
  670SOL  HW2   2679   1.009   3.905   2.021
  670SOL  MW    2680   1.055   3.832   2.012
  671SOL  OW    2681   1.041   3.829   2.279
  671SOL  HW1   2682   1.128   3.804   2.250
  671SOL  HW2   2683   0.987   3.752   2.261
  671SOL  MW    2684   1.045   3.816   2.273
  672SOL  OW    2685   1.072   3.839   2.617
  672SOL  HW1   2686   1.006   3.865   2.681
  672SOL  HW2   2687   1.040   3.874   2.534
  672SOL  MW    2688   1.060   3.847   2.615
  673SOL  OW    2689   1.059   3.809   2.932
  673SOL  HW1   2690   0.976   3.772   2.961
  673SOL  HW2   2691   1.040   3.849   2.848
  673SOL  MW    2692   1.046   3.809   2.925
  674SOL  OW    2693   1.067   3.858   3.199
  674SOL  HW1   2694   1.106   3.775   3.174
  674SOL  HW2   2695   1.114   3.883   3.279
  674SOL  MW    2696   1.078   3.851   3.206
  675SOL  OW    2697   1.038   3.826   3.535
  675SOL  HW1   2698   0.990   3.810   3.454
  675SOL  HW2   2699   1.118   3.774   3.526
  675SOL  MW    2700   1.042   3.817   3.523
  676SOL  OW    2701   1.068   3.871   3.836
  676SOL  HW1   2702   1.026   3.883   3.921
  676SOL  HW2   2703   1.064   3.957   3.795
  676SOL  MW    2704   1.062   3.884   3.842
  677SOL  OW    2705   1.387   0.161   0.116
  677SOL  HW1   2706   1.329   0.232   0.145
  677SOL  HW2   2707   1.389   0.100   0.189
  677SOL  MW    2708   1.380   0.162   0.129
  678SOL  OW    2709   1.386   0.141   0.455
  678SOL  HW1   2710   1.402   0.091   0.535
  678SOL  HW2   2711   1.473   0.155   0.417
  678SOL  MW    2712   1.399   0.137   0.461
  679SOL  OW    2713   1.353   0.176   0.805
  679SOL  HW1   2714   1.424   0.160   0.743
  679SOL  HW2   2715   1.314   0.090   0.820
  679SOL  MW    2716   1.357   0.163   0.799
  680SOL  OW    2717   1.346   0.162   1.098
  680SOL  HW1   2718   1.433   0.158   1.138
  680SOL  HW2   2719   1.302   0.233   1.144
  680SOL  MW    2720   1.352   0.171   1.109
  681SOL  OW    2721   1.367   0.177   1.395
  681SOL  HW1   2722   1.422   0.134   1.329
  681SOL  HW2   2723   1.311   0.237   1.346
  681SOL  MW    2724   1.367   0.179   1.380
  682SOL  OW    2725   1.419   0.192   1.656
  682SOL  HW1   2726   1.454   0.141   1.729
  682SOL  HW2   2727   1.457   0.152   1.578
  682SOL  MW    2728   1.428   0.181   1.655
  683SOL  OW    2729   1.380   0.158   1.972
  683SOL  HW1   2730   1.358   0.250   1.983
  683SOL  HW2   2731   1.476   0.156   1.969
  683SOL  MW    2732   1.390   0.169   1.973
  684SOL  OW    2733   1.372   0.193   2.269
  684SOL  HW1   2734   1.342   0.259   2.332
  684SOL  HW2   2735   1.424   0.132   2.321
  684SOL  MW    2736   1.374   0.194   2.284
  685SOL  OW    2737   1.381   0.181   2.601
  685SOL  HW1   2738   1.470   0.162   2.629
  685SOL  HW2   2739   1.390   0.246   2.532
  685SOL  MW    2740   1.394   0.187   2.596
  686SOL  OW    2741   1.383   0.192   2.921
  686SOL  HW1   2742   1.357   0.283   2.908
  686SOL  HW2   2743   1.316   0.141   2.875
  686SOL  MW    2744   1.371   0.197   2.913
  687SOL  OW    2745   1.355   0.118   3.266
  687SOL  HW1   2746   1.275   0.090   3.223
  687SOL  HW2   2747   1.349   0.214   3.268
  687SOL  MW    2748   1.344   0.127   3.261
  688SOL  OW    2749   1.366   0.154   3.506
  688SOL  HW1   2750   1.313   0.074   3.502
  688SOL  HW2   2751   1.409   0.159   3.420
  688SOL  MW    2752   1.365   0.145   3.494
  689SOL  OW    2753   1.379   0.188   3.846
  689SOL  HW1   2754   1.405   0.103   3.813
  689SOL  HW2   2755   1.440   0.250   3.806
  689SOL  MW    2756   1.390   0.185   3.837
  690SOL  OW    2757   1.422   0.442   0.154
  690SOL  HW1   2758   1.405   0.510   0.220
  690SOL  HW2   2759   1.394   0.481   0.071
  690SOL  MW    2760   1.417   0.456   0.152
  691SOL  OW    2761   1.413   0.457   0.444
  691SOL  HW1   2762   1.445   0.531   0.495
  691SOL  HW2   2763   1.402   0.387   0.508
  691SOL  MW    2764   1.416   0.458   0.459
  692SOL  OW    2765   1.413   0.453   0.772
  692SOL  HW1   2766   1.371   0.375   0.809
  692SOL  HW2   2767   1.506   0.431   0.771
  692SOL  MW    2768   1.420   0.440   0.776
  693SOL  OW    2769   1.423   0.436   1.061
  693SOL  HW1   2770   1.339   0.408   1.025
  693SOL  HW2   2771   1.400   0.508   1.120
  693SOL  MW    2772   1.409   0.442   1.064
  694SOL  OW    2773   1.347   0.453   1.361
  694SOL  HW1   2774   1.438   0.435   1.336
  694SOL  HW2   2775   1.302   0.369   1.350
  694SOL  MW    2776   1.353   0.440   1.356
  695SOL  OW    2777   1.399   0.436   1.706
  695SOL  HW1   2778   1.380   0.434   1.613
  695SOL  HW2   2779   1.490   0.406   1.713
  695SOL  MW    2780   1.408   0.432   1.695
  696SOL  OW    2781   1.366   0.450   1.988
  696SOL  HW1   2782   1.288   0.424   1.938
  696SOL  HW2   2783   1.335   0.457   2.078
  696SOL  MW    2784   1.352   0.448   1.993
  697SOL  OW    2785   1.402   0.459   2.297
  697SOL  HW1   2786   1.417   0.516   2.221
  697SOL  HW2   2787   1.311   0.430   2.287
  697SOL  MW    2788   1.392   0.462   2.286
  698SOL  OW    2789   1.413   0.467   2.592
  698SOL  HW1   2790   1.428   0.468   2.687
  698SOL  HW2   2791   1.319   0.453   2.584
  698SOL  MW    2792   1.403   0.466   2.603
  699SOL  OW    2793   1.417   0.449   2.886
  699SOL  HW1   2794   1.419   0.443   2.982
  699SOL  HW2   2795   1.484   0.388   2.857
  699SOL  MW    2796   1.426   0.440   2.895
  700SOL  OW    2797   1.384   0.431   3.210
  700SOL  HW1   2798   1.319   0.371   3.246
  700SOL  HW2   2799   1.467   0.405   3.250
  700SOL  MW    2800   1.386   0.420   3.220
  701SOL  OW    2801   1.404   0.432   3.563
  701SOL  HW1   2802   1.396   0.511   3.509
  701SOL  HW2   2803   1.435   0.365   3.502
  701SOL  MW    2804   1.407   0.433   3.548
  702SOL  OW    2805   1.420   0.470   3.863
  702SOL  HW1   2806   1.374   0.411   3.923
  702SOL  HW2   2807   1.352   0.498   3.801
  702SOL  MW    2808   1.405   0.466   3.863
  703SOL  OW    2809   1.402   0.809   0.141
  703SOL  HW1   2810   1.425   0.901   0.139
  703SOL  HW2   2811   1.446   0.771   0.065
  703SOL  MW    2812   1.410   0.816   0.131
  704SOL  OW    2813   1.358   0.771   0.464
  704SOL  HW1   2814   1.405   0.798   0.543
  704SOL  HW2   2815   1.425   0.763   0.397
  704SOL  MW    2816   1.372   0.773   0.466
  705SOL  OW    2817   1.359   0.778   0.730
  705SOL  HW1   2818   1.446   0.756   0.764
  705SOL  HW2   2819   1.369   0.865   0.691
  705SOL  MW    2820   1.371   0.787   0.730
  706SOL  OW    2821   1.419   0.750   1.040
  706SOL  HW1   2822   1.497   0.777   0.993
  706SOL  HW2   2823   1.373   0.692   0.980
  706SOL  MW    2824   1.423   0.746   1.026
  707SOL  OW    2825   1.353   0.748   1.367
  707SOL  HW1   2826   1.346   0.807   1.442
  707SOL  HW2   2827   1.446   0.752   1.342
  707SOL  MW    2828   1.364   0.756   1.373
  708SOL  OW    2829   1.347   0.752   1.668
  708SOL  HW1   2830   1.314   0.666   1.695
  708SOL  HW2   2831   1.278   0.813   1.691
  708SOL  MW    2832   1.334   0.748   1.674
  709SOL  OW    2833   1.375   0.760   1.987
  709SOL  HW1   2834   1.455   0.710   1.972
  709SOL  HW2   2835   1.310   0.718   1.931
  709SOL  MW    2836   1.377   0.748   1.978
  710SOL  OW    2837   1.371   0.736   2.270
  710SOL  HW1   2838   1.355   0.689   2.188
  710SOL  HW2   2839   1.378   0.828   2.244
  710SOL  MW    2840   1.370   0.742   2.256
  711SOL  OW    2841   1.361   0.790   2.655
  711SOL  HW1   2842   1.364   0.876   2.614
  711SOL  HW2   2843   1.362   0.807   2.749
  711SOL  MW    2844   1.361   0.803   2.661
  712SOL  OW    2845   1.419   0.770   2.926
  712SOL  HW1   2846   1.342   0.801   2.973
  712SOL  HW2   2847   1.493   0.800   2.978
  712SOL  MW    2848   1.419   0.777   2.938
  713SOL  OW    2849   1.370   0.791   3.252
  713SOL  HW1   2850   1.464   0.805   3.246
  713SOL  HW2   2851   1.335   0.827   3.170
  713SOL  MW    2852   1.377   0.797   3.241
  714SOL  OW    2853   1.412   0.801   3.533
  714SOL  HW1   2854   1.458   0.738   3.589
  714SOL  HW2   2855   1.482   0.844   3.485
  714SOL  MW    2856   1.427   0.798   3.534
  715SOL  OW    2857   1.406   0.794   3.831
  715SOL  HW1   2858   1.419   0.803   3.925
  715SOL  HW2   2859   1.406   0.884   3.798
  715SOL  MW    2860   1.408   0.806   3.839
  716SOL  OW    2861   1.419   1.044   0.193
  716SOL  HW1   2862   1.396   1.071   0.104
  716SOL  HW2   2863   1.416   1.126   0.244
  716SOL  MW    2864   1.416   1.058   0.188
  717SOL  OW    2865   1.406   1.044   0.474
  717SOL  HW1   2866   1.472   1.042   0.405
  717SOL  HW2   2867   1.324   1.060   0.428
  717SOL  MW    2868   1.404   1.046   0.459
  718SOL  OW    2869   1.347   1.099   0.793
  718SOL  HW1   2870   1.372   1.006   0.792
  718SOL  HW2   2871   1.414   1.141   0.847
  718SOL  MW    2872   1.359   1.092   0.800
  719SOL  OW    2873   1.393   1.105   1.045
  719SOL  HW1   2874   1.399   1.195   1.013
  719SOL  HW2   2875   1.449   1.103   1.122
  719SOL  MW    2876   1.401   1.117   1.051
  720SOL  OW    2877   1.367   1.070   1.348
  720SOL  HW1   2878   1.300   1.071   1.279
  720SOL  HW2   2879   1.318   1.048   1.428
  720SOL  MW    2880   1.352   1.067   1.349
  721SOL  OW    2881   1.380   1.058   1.684
  721SOL  HW1   2882   1.394   1.151   1.663
  721SOL  HW2   2883   1.416   1.048   1.772
  721SOL  MW    2884   1.387   1.069   1.692
  722SOL  OW    2885   1.379   1.107   1.982
  722SOL  HW1   2886   1.440   1.042   2.015
  722SOL  HW2   2887   1.393   1.108   1.887
  722SOL  MW    2888   1.388   1.099   1.974
  723SOL  OW    2889   1.416   1.071   2.294
  723SOL  HW1   2890   1.492   1.057   2.351
  723SOL  HW2   2891   1.439   1.027   2.212
  723SOL  MW    2892   1.429   1.064   2.291
  724SOL  OW    2893   1.385   1.070   2.596
  724SOL  HW1   2894   1.339   1.154   2.595
  724SOL  HW2   2895   1.391   1.045   2.504
  724SOL  MW    2896   1.380   1.078   2.584
  725SOL  OW    2897   1.385   1.049   2.911
  725SOL  HW1   2898   1.363   1.139   2.934
  725SOL  HW2   2899   1.308   1.017   2.864
  725SOL  MW    2900   1.372   1.057   2.908
  726SOL  OW    2901   1.390   1.070   3.257
  726SOL  HW1   2902   1.328   1.123   3.306
  726SOL  HW2   2903   1.425   1.008   3.321
  726SOL  MW    2904   1.386   1.069   3.271
  727SOL  OW    2905   1.365   1.115   3.561
  727SOL  HW1   2906   1.442   1.129   3.506
  727SOL  HW2   2907   1.323   1.037   3.524
  727SOL  MW    2908   1.369   1.106   3.549
  728SOL  OW    2909   1.422   1.104   3.818
  728SOL  HW1   2910   1.360   1.171   3.789
  728SOL  HW2   2911   1.393   1.080   3.905
  728SOL  MW    2912   1.410   1.110   3.825
  729SOL  OW    2913   1.387   1.358   0.179
  729SOL  HW1   2914   1.442   1.357   0.101
  729SOL  HW2   2915   1.437   1.310   0.245
  729SOL  MW    2916   1.400   1.352   0.178
  730SOL  OW    2917   1.391   1.366   0.496
  730SOL  HW1   2918   1.329   1.394   0.429
  730SOL  HW2   2919   1.379   1.271   0.502
  730SOL  MW    2920   1.382   1.357   0.488
  731SOL  OW    2921   1.354   1.390   0.787
  731SOL  HW1   2922   1.315   1.414   0.871
  731SOL  HW2   2923   1.432   1.339   0.810
  731SOL  MW    2924   1.359   1.386   0.801
  732SOL  OW    2925   1.349   1.392   1.102
  732SOL  HW1   2926   1.336   1.452   1.028
  732SOL  HW2   2927   1.265   1.348   1.113
  732SOL  MW    2928   1.337   1.394   1.094
  733SOL  OW    2929   1.350   1.386   1.365
  733SOL  HW1   2930   1.306   1.376   1.281
  733SOL  HW2   2931   1.301   1.455   1.410
  733SOL  MW    2932   1.338   1.393   1.360
  734SOL  OW    2933   1.398   1.354   1.727
  734SOL  HW1   2934   1.374   1.383   1.815
  734SOL  HW2   2935   1.367   1.264   1.722
  734SOL  MW    2936   1.391   1.346   1.738
  735SOL  OW    2937   1.416   1.359   1.986
  735SOL  HW1   2938   1.355   1.425   1.952
  735SOL  HW2   2939   1.361   1.298   2.034
  735SOL  MW    2940   1.401   1.360   1.988
  736SOL  OW    2941   1.392   1.402   2.303
  736SOL  HW1   2942   1.349   1.455   2.371
  736SOL  HW2   2943   1.451   1.463   2.259
  736SOL  MW    2944   1.394   1.417   2.306
  737SOL  OW    2945   1.357   1.353   2.655
  737SOL  HW1   2946   1.419   1.423   2.674
  737SOL  HW2   2947   1.343   1.358   2.561
  737SOL  MW    2948   1.363   1.363   2.646
  738SOL  OW    2949   1.381   1.414   2.922
  738SOL  HW1   2950   1.395   1.422   2.827
  738SOL  HW2   2951   1.436   1.341   2.949
  738SOL  MW    2952   1.390   1.406   2.913
  739SOL  OW    2953   1.418   1.352   3.200
  739SOL  HW1   2954   1.417   1.296   3.122
  739SOL  HW2   2955   1.409   1.441   3.166
  739SOL  MW    2956   1.417   1.356   3.186
  740SOL  OW    2957   1.419   1.420   3.524
  740SOL  HW1   2958   1.399   1.327   3.524
  740SOL  HW2   2959   1.398   1.450   3.612
  740SOL  MW    2960   1.414   1.412   3.535
  741SOL  OW    2961   1.373   1.381   3.839
  741SOL  HW1   2962   1.444   1.317   3.832
  741SOL  HW2   2963   1.297   1.330   3.867
  741SOL  MW    2964   1.372   1.366   3.842
  742SOL  OW    2965   1.360   1.724   0.134
  742SOL  HW1   2966   1.396   1.677   0.059
  742SOL  HW2   2967   1.289   1.668   0.165
  742SOL  MW    2968   1.355   1.711   0.129
  743SOL  OW    2969   1.401   1.658   0.425
  743SOL  HW1   2970   1.345   1.580   0.419
  743SOL  HW2   2971   1.362   1.710   0.495
  743SOL  MW    2972   1.389   1.654   0.433
  744SOL  OW    2973   1.397   1.679   0.782
  744SOL  HW1   2974   1.463   1.682   0.713
  744SOL  HW2   2975   1.407   1.763   0.827
  744SOL  MW    2976   1.407   1.690   0.779
  745SOL  OW    2977   1.352   1.728   1.097
  745SOL  HW1   2978   1.270   1.681   1.107
  745SOL  HW2   2979   1.359   1.782   1.176
  745SOL  MW    2980   1.342   1.729   1.108
  746SOL  OW    2981   1.415   1.663   1.370
  746SOL  HW1   2982   1.447   1.624   1.451
  746SOL  HW2   2983   1.336   1.711   1.396
  746SOL  MW    2984   1.409   1.664   1.384
  747SOL  OW    2985   1.374   1.695   1.676
  747SOL  HW1   2986   1.305   1.711   1.612
  747SOL  HW2   2987   1.426   1.625   1.638
  747SOL  MW    2988   1.372   1.688   1.663
  748SOL  OW    2989   1.349   1.682   1.980
  748SOL  HW1   2990   1.328   1.607   2.036
  748SOL  HW2   2991   1.433   1.659   1.941
  748SOL  MW    2992   1.357   1.669   1.982
  749SOL  OW    2993   1.375   1.668   2.289
  749SOL  HW1   2994   1.406   1.596   2.234
  749SOL  HW2   2995   1.400   1.643   2.378
  749SOL  MW    2996   1.383   1.656   2.293
  750SOL  OW    2997   1.395   1.683   2.603
  750SOL  HW1   2998   1.434   1.700   2.689
  750SOL  HW2   2999   1.451   1.617   2.563
  750SOL  MW    3000   1.407   1.677   2.609
  751SOL  OW    3001   1.387   1.714   2.913
  751SOL  HW1   3002   1.355   1.661   2.841
  751SOL  HW2   3003   1.483   1.714   2.903
  751SOL  MW    3004   1.395   1.707   2.903
  752SOL  OW    3005   1.392   1.730   3.233
  752SOL  HW1   3006   1.327   1.690   3.175
  752SOL  HW2   3007   1.344   1.749   3.313
  752SOL  MW    3008   1.377   1.727   3.235
  753SOL  OW    3009   1.417   1.716   3.503
  753SOL  HW1   3010   1.325   1.720   3.529
  753SOL  HW2   3011   1.458   1.790   3.547
  753SOL  MW    3012   1.411   1.726   3.512
  754SOL  OW    3013   1.379   1.708   3.885
  754SOL  HW1   3014   1.392   1.803   3.885
  754SOL  HW2   3015   1.419   1.678   3.803
  754SOL  MW    3016   1.386   1.716   3.875
  755SOL  OW    3017   1.381   1.967   0.159
  755SOL  HW1   3018   1.327   1.992   0.233
  755SOL  HW2   3019   1.369   2.038   0.095
  755SOL  MW    3020   1.373   1.980   0.160
  756SOL  OW    3021   1.355   2.020   0.462
  756SOL  HW1   3022   1.384   2.055   0.546
  756SOL  HW2   3023   1.293   1.950   0.485
  756SOL  MW    3024   1.351   2.016   0.476
  757SOL  OW    3025   1.402   2.030   0.780
  757SOL  HW1   3026   1.461   1.954   0.786
  757SOL  HW2   3027   1.437   2.080   0.706
  757SOL  MW    3028   1.414   2.026   0.771
  758SOL  OW    3029   1.394   2.020   1.104
  758SOL  HW1   3030   1.394   1.934   1.146
  758SOL  HW2   3031   1.301   2.037   1.085
  758SOL  MW    3032   1.382   2.011   1.107
  759SOL  OW    3033   1.414   1.963   1.389
  759SOL  HW1   3034   1.488   2.019   1.365
  759SOL  HW2   3035   1.352   1.973   1.317
  759SOL  MW    3036   1.416   1.971   1.377
  760SOL  OW    3037   1.362   2.029   1.704
  760SOL  HW1   3038   1.457   2.039   1.699
  760SOL  HW2   3039   1.331   2.110   1.744
  760SOL  MW    3040   1.370   2.041   1.709
  761SOL  OW    3041   1.378   1.975   1.987
  761SOL  HW1   3042   1.427   2.008   1.912
  761SOL  HW2   3043   1.308   1.922   1.949
  761SOL  MW    3044   1.376   1.972   1.973
  762SOL  OW    3045   1.401   1.976   2.275
  762SOL  HW1   3046   1.460   1.951   2.204
  762SOL  HW2   3047   1.357   1.895   2.300
  762SOL  MW    3048   1.403   1.963   2.269
  763SOL  OW    3049   1.416   2.021   2.591
  763SOL  HW1   3050   1.399   2.109   2.556
  763SOL  HW2   3051   1.350   1.966   2.550
  763SOL  MW    3052   1.405   2.025   2.582
  764SOL  OW    3053   1.368   2.038   2.940
  764SOL  HW1   3054   1.300   2.101   2.964
  764SOL  HW2   3055   1.380   1.985   3.018
  764SOL  MW    3056   1.361   2.039   2.953
  765SOL  OW    3057   1.393   1.985   3.215
  765SOL  HW1   3058   1.445   1.933   3.277
  765SOL  HW2   3059   1.360   1.920   3.153
  765SOL  MW    3060   1.396   1.970   3.215
  766SOL  OW    3061   1.348   2.018   3.502
  766SOL  HW1   3062   1.381   1.953   3.440
  766SOL  HW2   3063   1.348   1.974   3.587
  766SOL  MW    3064   1.352   2.004   3.505
  767SOL  OW    3065   1.345   2.018   3.882
  767SOL  HW1   3066   1.345   1.926   3.855
  767SOL  HW2   3067   1.367   2.016   3.975
  767SOL  MW    3068   1.348   2.006   3.891
  768SOL  OW    3069   1.405   2.305   0.153
  768SOL  HW1   3070   1.330   2.364   0.163
  768SOL  HW2   3071   1.379   2.246   0.082
  768SOL  MW    3072   1.392   2.305   0.145
  769SOL  OW    3073   1.380   2.294   0.463
  769SOL  HW1   3074   1.421   2.213   0.494
  769SOL  HW2   3075   1.406   2.301   0.372
  769SOL  MW    3076   1.388   2.284   0.455
  770SOL  OW    3077   1.379   2.316   0.801
  770SOL  HW1   3078   1.449   2.379   0.816
  770SOL  HW2   3079   1.390   2.289   0.710
  770SOL  MW    3080   1.389   2.320   0.791
  771SOL  OW    3081   1.424   2.274   1.068
  771SOL  HW1   3082   1.382   2.288   1.153
  771SOL  HW2   3083   1.410   2.181   1.049
  771SOL  MW    3084   1.417   2.264   1.076
  772SOL  OW    3085   1.359   2.296   1.368
  772SOL  HW1   3086   1.276   2.248   1.373
  772SOL  HW2   3087   1.410   2.249   1.301
  772SOL  MW    3088   1.355   2.284   1.360
  773SOL  OW    3089   1.359   2.329   1.692
  773SOL  HW1   3090   1.300   2.296   1.760
  773SOL  HW2   3091   1.310   2.316   1.610
  773SOL  MW    3092   1.345   2.323   1.690
  774SOL  OW    3093   1.418   2.270   1.965
  774SOL  HW1   3094   1.499   2.270   1.913
  774SOL  HW2   3095   1.424   2.350   2.017
  774SOL  MW    3096   1.429   2.280   1.965
  775SOL  OW    3097   1.377   2.274   2.289
  775SOL  HW1   3098   1.421   2.327   2.355
  775SOL  HW2   3099   1.398   2.317   2.206
  775SOL  MW    3100   1.385   2.286   2.287
  776SOL  OW    3101   1.423   2.284   2.591
  776SOL  HW1   3102   1.370   2.290   2.512
  776SOL  HW2   3103   1.456   2.374   2.605
  776SOL  MW    3104   1.421   2.297   2.583
  777SOL  OW    3105   1.391   2.308   2.930
  777SOL  HW1   3106   1.346   2.310   2.845
  777SOL  HW2   3107   1.319   2.307   2.993
  777SOL  MW    3108   1.376   2.308   2.927
  778SOL  OW    3109   1.375   2.334   3.202
  778SOL  HW1   3110   1.307   2.266   3.210
  778SOL  HW2   3111   1.447   2.290   3.157
  778SOL  MW    3112   1.375   2.320   3.197
  779SOL  OW    3113   1.379   2.323   3.568
  779SOL  HW1   3114   1.318   2.395   3.582
  779SOL  HW2   3115   1.459   2.350   3.612
  779SOL  MW    3116   1.381   2.336   3.575
  780SOL  OW    3117   1.374   2.313   3.812
  780SOL  HW1   3118   1.445   2.303   3.748
  780SOL  HW2   3119   1.380   2.404   3.840
  780SOL  MW    3120   1.384   2.324   3.807
  781SOL  OW    3121   1.358   2.581   0.172
  781SOL  HW1   3122   1.371   2.658   0.117
  781SOL  HW2   3123   1.425   2.519   0.143
  781SOL  MW    3124   1.368   2.583   0.161
  782SOL  OW    3125   1.368   2.633   0.427
  782SOL  HW1   3126   1.415   2.635   0.510
  782SOL  HW2   3127   1.277   2.614   0.451
  782SOL  MW    3128   1.362   2.631   0.441
  783SOL  OW    3129   1.414   2.642   0.736
  783SOL  HW1   3130   1.488   2.596   0.699
  783SOL  HW2   3131   1.352   2.573   0.759
  783SOL  MW    3132   1.415   2.627   0.734
  784SOL  OW    3133   1.347   2.580   1.105
  784SOL  HW1   3134   1.438   2.592   1.081
  784SOL  HW2   3135   1.312   2.519   1.040
  784SOL  MW    3136   1.354   2.574   1.094
  785SOL  OW    3137   1.363   2.619   1.379
  785SOL  HW1   3138   1.273   2.636   1.354
  785SOL  HW2   3139   1.359   2.593   1.471
  785SOL  MW    3140   1.351   2.618   1.387
  786SOL  OW    3141   1.408   2.614   1.692
  786SOL  HW1   3142   1.354   2.552   1.740
  786SOL  HW2   3143   1.497   2.578   1.697
  786SOL  MW    3144   1.413   2.602   1.699
  787SOL  OW    3145   1.424   2.587   2.026
  787SOL  HW1   3146   1.427   2.495   2.002
  787SOL  HW2   3147   1.510   2.621   2.003
  787SOL  MW    3148   1.435   2.580   2.020
  788SOL  OW    3149   1.349   2.614   2.339
  788SOL  HW1   3150   1.392   2.552   2.398
  788SOL  HW2   3151   1.340   2.694   2.390
  788SOL  MW    3152   1.353   2.616   2.353
  789SOL  OW    3153   1.398   2.630   2.596
  789SOL  HW1   3154   1.483   2.651   2.559
  789SOL  HW2   3155   1.391   2.685   2.674
  789SOL  MW    3156   1.408   2.640   2.602
  790SOL  OW    3157   1.378   2.605   2.925
  790SOL  HW1   3158   1.382   2.566   3.012
  790SOL  HW2   3159   1.376   2.530   2.865
  790SOL  MW    3160   1.378   2.590   2.928
  791SOL  OW    3161   1.382   2.602   3.215
  791SOL  HW1   3162   1.477   2.597   3.215
  791SOL  HW2   3163   1.361   2.682   3.264
  791SOL  MW    3164   1.391   2.611   3.221
  792SOL  OW    3165   1.365   2.605   3.510
  792SOL  HW1   3166   1.447   2.578   3.470
  792SOL  HW2   3167   1.347   2.691   3.473
  792SOL  MW    3168   1.373   2.612   3.500
  793SOL  OW    3169   1.414   2.624   3.817
  793SOL  HW1   3170   1.488   2.576   3.856
  793SOL  HW2   3171   1.401   2.699   3.874
  793SOL  MW    3172   1.422   2.627   3.829
  794SOL  OW    3173   1.400   2.951   0.133
  794SOL  HW1   3174   1.392   2.896   0.055
  794SOL  HW2   3175   1.323   2.929   0.185
  794SOL  MW    3176   1.389   2.941   0.130
  795SOL  OW    3177   1.357   2.884   0.425
  795SOL  HW1   3178   1.443   2.843   0.434
  795SOL  HW2   3179   1.308   2.824   0.369
  795SOL  MW    3180   1.361   2.871   0.419
  796SOL  OW    3181   1.406   2.962   0.733
  796SOL  HW1   3182   1.409   2.867   0.741
  796SOL  HW2   3183   1.415   2.995   0.822
  796SOL  MW    3184   1.407   2.954   0.745
  797SOL  OW    3185   1.404   2.889   1.084
  797SOL  HW1   3186   1.410   2.980   1.056
  797SOL  HW2   3187   1.316   2.880   1.120
  797SOL  MW    3188   1.394   2.899   1.085
  798SOL  OW    3189   1.405   2.912   1.345
  798SOL  HW1   3190   1.389   3.006   1.351
  798SOL  HW2   3191   1.353   2.875   1.417
  798SOL  MW    3192   1.396   2.919   1.355
  799SOL  OW    3193   1.392   2.962   1.673
  799SOL  HW1   3194   1.344   2.888   1.637
  799SOL  HW2   3195   1.335   3.038   1.657
  799SOL  MW    3196   1.379   2.962   1.666
  800SOL  OW    3197   1.360   2.893   2.004
  800SOL  HW1   3198   1.424   2.860   1.941
  800SOL  HW2   3199   1.319   2.815   2.041
  800SOL  MW    3200   1.363   2.879   2.001
  801SOL  OW    3201   1.392   2.946   2.328
  801SOL  HW1   3202   1.445   2.867   2.325
  801SOL  HW2   3203   1.414   2.992   2.246
  801SOL  MW    3204   1.402   2.942   2.317
  802SOL  OW    3205   1.416   2.948   2.595
  802SOL  HW1   3206   1.418   3.041   2.614
  802SOL  HW2   3207   1.439   2.906   2.678
  802SOL  MW    3208   1.419   2.954   2.608
  803SOL  OW    3209   1.389   2.907   2.909
  803SOL  HW1   3210   1.452   2.969   2.946
  803SOL  HW2   3211   1.335   2.882   2.984
  803SOL  MW    3212   1.390   2.912   2.924
  804SOL  OW    3213   1.419   2.938   3.269
  804SOL  HW1   3214   1.328   2.954   3.243
  804SOL  HW2   3215   1.438   2.850   3.234
  804SOL  MW    3216   1.410   2.929   3.261
  805SOL  OW    3217   1.378   2.926   3.537
  805SOL  HW1   3218   1.346   2.982   3.466
  805SOL  HW2   3219   1.414   2.849   3.494
  805SOL  MW    3220   1.378   2.923   3.523
  806SOL  OW    3221   1.353   2.902   3.848
  806SOL  HW1   3222   1.379   2.837   3.783
  806SOL  HW2   3223   1.407   2.881   3.925
  806SOL  MW    3224   1.363   2.891   3.850
  807SOL  OW    3225   1.350   3.265   0.124
  807SOL  HW1   3226   1.330   3.209   0.049
  807SOL  HW2   3227   1.393   3.207   0.187
  807SOL  MW    3228   1.353   3.251   0.122
  808SOL  OW    3229   1.360   3.252   0.429
  808SOL  HW1   3230   1.387   3.167   0.395
  808SOL  HW2   3231   1.266   3.255   0.417
  808SOL  MW    3232   1.352   3.241   0.423
  809SOL  OW    3233   1.417   3.249   0.735
  809SOL  HW1   3234   1.349   3.274   0.798
  809SOL  HW2   3235   1.391   3.161   0.707
  809SOL  MW    3236   1.405   3.241   0.739
  810SOL  OW    3237   1.400   3.241   1.098
  810SOL  HW1   3238   1.406   3.265   1.190
  810SOL  HW2   3239   1.306   3.239   1.079
  810SOL  MW    3240   1.389   3.244   1.107
  811SOL  OW    3241   1.411   3.248   1.392
  811SOL  HW1   3242   1.334   3.224   1.443
  811SOL  HW2   3243   1.484   3.205   1.435
  811SOL  MW    3244   1.410   3.240   1.404
  812SOL  OW    3245   1.370   3.247   1.729
  812SOL  HW1   3246   1.308   3.252   1.656
  812SOL  HW2   3247   1.317   3.261   1.807
  812SOL  MW    3248   1.356   3.249   1.730
  813SOL  OW    3249   1.392   3.244   1.995
  813SOL  HW1   3250   1.376   3.161   1.950
  813SOL  HW2   3251   1.376   3.311   1.928
  813SOL  MW    3252   1.388   3.242   1.981
  814SOL  OW    3253   1.405   3.271   2.281
  814SOL  HW1   3254   1.432   3.216   2.354
  814SOL  HW2   3255   1.434   3.359   2.305
  814SOL  MW    3256   1.412   3.275   2.293
  815SOL  OW    3257   1.361   3.234   2.614
  815SOL  HW1   3258   1.305   3.197   2.683
  815SOL  HW2   3259   1.340   3.182   2.536
  815SOL  MW    3260   1.351   3.223   2.613
  816SOL  OW    3261   1.390   3.195   2.915
  816SOL  HW1   3262   1.321   3.182   2.980
  816SOL  HW2   3263   1.392   3.113   2.865
  816SOL  MW    3264   1.382   3.183   2.917
  817SOL  OW    3265   1.391   3.238   3.243
  817SOL  HW1   3266   1.460   3.172   3.234
  817SOL  HW2   3267   1.342   3.232   3.161
  817SOL  MW    3268   1.394   3.229   3.232
  818SOL  OW    3269   1.402   3.242   3.562
  818SOL  HW1   3270   1.451   3.250   3.643
  818SOL  HW2   3271   1.439   3.310   3.505
  818SOL  MW    3272   1.413   3.252   3.565
  819SOL  OW    3273   1.395   3.234   3.855
  819SOL  HW1   3274   1.365   3.143   3.863
  819SOL  HW2   3275   1.466   3.230   3.791
  819SOL  MW    3276   1.400   3.222   3.848
  820SOL  OW    3277   1.353   3.520   0.156
  820SOL  HW1   3278   1.414   3.451   0.183
  820SOL  HW2   3279   1.286   3.475   0.104
  820SOL  MW    3280   1.352   3.506   0.153
  821SOL  OW    3281   1.414   3.553   0.429
  821SOL  HW1   3282   1.354   3.626   0.438
  821SOL  HW2   3283   1.444   3.535   0.518
  821SOL  MW    3284   1.410   3.560   0.441
  822SOL  OW    3285   1.392   3.516   0.788
  822SOL  HW1   3286   1.299   3.518   0.809
  822SOL  HW2   3287   1.434   3.483   0.868
  822SOL  MW    3288   1.385   3.512   0.801
  823SOL  OW    3289   1.411   3.546   1.084
  823SOL  HW1   3290   1.451   3.585   1.006
  823SOL  HW2   3291   1.370   3.465   1.053
  823SOL  MW    3292   1.411   3.541   1.070
  824SOL  OW    3293   1.372   3.534   1.414
  824SOL  HW1   3294   1.306   3.578   1.468
  824SOL  HW2   3295   1.386   3.450   1.457
  824SOL  MW    3296   1.365   3.529   1.426
  825SOL  OW    3297   1.402   3.540   1.682
  825SOL  HW1   3298   1.370   3.594   1.610
  825SOL  HW2   3299   1.344   3.464   1.682
  825SOL  MW    3300   1.391   3.537   1.673
  826SOL  OW    3301   1.349   3.510   1.975
  826SOL  HW1   3302   1.425   3.528   1.920
  826SOL  HW2   3303   1.362   3.564   2.053
  826SOL  MW    3304   1.360   3.519   1.978
  827SOL  OW    3305   1.374   3.574   2.308
  827SOL  HW1   3306   1.465   3.597   2.331
  827SOL  HW2   3307   1.363   3.606   2.219
  827SOL  MW    3308   1.385   3.581   2.300
  828SOL  OW    3309   1.363   3.507   2.602
  828SOL  HW1   3310   1.296   3.552   2.552
  828SOL  HW2   3311   1.337   3.518   2.694
  828SOL  MW    3312   1.351   3.514   2.608
  829SOL  OW    3313   1.410   3.529   2.945
  829SOL  HW1   3314   1.454   3.446   2.928
  829SOL  HW2   3315   1.430   3.549   3.036
  829SOL  MW    3316   1.418   3.521   2.954
  830SOL  OW    3317   1.409   3.507   3.239
  830SOL  HW1   3318   1.348   3.434   3.235
  830SOL  HW2   3319   1.491   3.472   3.205
  830SOL  MW    3320   1.412   3.493   3.235
  831SOL  OW    3321   1.421   3.531   3.503
  831SOL  HW1   3322   1.480   3.606   3.505
  831SOL  HW2   3323   1.420   3.504   3.411
  831SOL  MW    3324   1.429   3.537   3.491
  832SOL  OW    3325   1.418   3.569   3.848
  832SOL  HW1   3326   1.425   3.474   3.844
  832SOL  HW2   3327   1.422   3.597   3.756
  832SOL  MW    3328   1.420   3.561   3.836
  833SOL  OW    3329   1.389   3.823   0.179
  833SOL  HW1   3330   1.309   3.860   0.217
  833SOL  HW2   3331   1.363   3.736   0.148
  833SOL  MW    3332   1.375   3.817   0.180
  834SOL  OW    3333   1.385   3.809   0.476
  834SOL  HW1   3334   1.312   3.793   0.537
  834SOL  HW2   3335   1.358   3.886   0.426
  834SOL  MW    3336   1.372   3.817   0.477
  835SOL  OW    3337   1.421   3.872   0.751
  835SOL  HW1   3338   1.434   3.808   0.682
  835SOL  HW2   3339   1.503   3.920   0.756
  835SOL  MW    3340   1.433   3.870   0.743
  836SOL  OW    3341   1.349   3.881   1.112
  836SOL  HW1   3342   1.430   3.914   1.073
  836SOL  HW2   3343   1.295   3.960   1.124
  836SOL  MW    3344   1.352   3.896   1.109
  837SOL  OW    3345   1.387   3.858   1.382
  837SOL  HW1   3346   1.304   3.822   1.351
  837SOL  HW2   3347   1.450   3.787   1.369
  837SOL  MW    3348   1.385   3.844   1.376
  838SOL  OW    3349   1.378   3.816   1.660
  838SOL  HW1   3350   1.398   3.899   1.618
  838SOL  HW2   3351   1.371   3.837   1.753
  838SOL  MW    3352   1.380   3.829   1.667
  839SOL  OW    3353   1.363   3.873   1.972
  839SOL  HW1   3354   1.312   3.952   1.956
  839SOL  HW2   3355   1.321   3.806   1.918
  839SOL  MW    3356   1.351   3.875   1.963
  840SOL  OW    3357   1.363   3.850   2.285
  840SOL  HW1   3358   1.340   3.760   2.264
  840SOL  HW2   3359   1.280   3.898   2.278
  840SOL  MW    3360   1.349   3.845   2.281
  841SOL  OW    3361   1.358   3.851   2.605
  841SOL  HW1   3362   1.451   3.834   2.617
  841SOL  HW2   3363   1.352   3.946   2.592
  841SOL  MW    3364   1.369   3.861   2.605
  842SOL  OW    3365   1.395   3.879   2.895
  842SOL  HW1   3366   1.356   3.895   2.981
  842SOL  HW2   3367   1.468   3.940   2.890
  842SOL  MW    3368   1.399   3.889   2.906
  843SOL  OW    3369   1.418   3.878   3.257
  843SOL  HW1   3370   1.347   3.925   3.212
  843SOL  HW2   3371   1.441   3.936   3.330
  843SOL  MW    3372   1.412   3.892   3.261
  844SOL  OW    3373   1.395   3.856   3.550
  844SOL  HW1   3374   1.308   3.879   3.582
  844SOL  HW2   3375   1.453   3.868   3.625
  844SOL  MW    3376   1.391   3.860   3.563
  845SOL  OW    3377   1.400   3.807   3.883
  845SOL  HW1   3378   1.402   3.899   3.911
  845SOL  HW2   3379   1.464   3.763   3.939
  845SOL  MW    3380   1.408   3.814   3.894
  846SOL  OW    3381   1.699   0.176   0.144
  846SOL  HW1   3382   1.741   0.163   0.229
  846SOL  HW2   3383   1.772   0.195   0.085
  846SOL  MW    3384   1.714   0.177   0.147
  847SOL  OW    3385   1.653   0.155   0.462
  847SOL  HW1   3386   1.680   0.145   0.371
  847SOL  HW2   3387   1.572   0.205   0.458
  847SOL  MW    3388   1.646   0.160   0.450
  848SOL  OW    3389   1.687   0.141   0.749
  848SOL  HW1   3390   1.649   0.226   0.772
  848SOL  HW2   3391   1.782   0.157   0.747
  848SOL  MW    3392   1.694   0.154   0.752
  849SOL  OW    3393   1.695   0.144   1.115
  849SOL  HW1   3394   1.658   0.214   1.060
  849SOL  HW2   3395   1.621   0.113   1.168
  849SOL  MW    3396   1.680   0.149   1.114
  850SOL  OW    3397   1.666   0.139   1.368
  850SOL  HW1   3398   1.751   0.101   1.348
  850SOL  HW2   3399   1.657   0.211   1.306
  850SOL  MW    3400   1.676   0.144   1.358
  851SOL  OW    3401   1.696   0.154   1.704
  851SOL  HW1   3402   1.660   0.154   1.615
  851SOL  HW2   3403   1.698   0.061   1.729
  851SOL  MW    3404   1.691   0.142   1.696
  852SOL  OW    3405   1.728   0.137   2.015
  852SOL  HW1   3406   1.740   0.120   2.109
  852SOL  HW2   3407   1.749   0.053   1.973
  852SOL  MW    3408   1.732   0.124   2.022
  853SOL  OW    3409   1.654   0.135   2.305
  853SOL  HW1   3410   1.620   0.218   2.337
  853SOL  HW2   3411   1.722   0.159   2.242
  853SOL  MW    3412   1.659   0.149   2.301
  854SOL  OW    3413   1.655   0.163   2.630
  854SOL  HW1   3414   1.741   0.131   2.602
  854SOL  HW2   3415   1.661   0.258   2.622
  854SOL  MW    3416   1.667   0.171   2.625
  855SOL  OW    3417   1.712   0.155   2.931
  855SOL  HW1   3418   1.766   0.089   2.889
  855SOL  HW2   3419   1.637   0.107   2.967
  855SOL  MW    3420   1.709   0.140   2.930
  856SOL  OW    3421   1.684   0.117   3.199
  856SOL  HW1   3422   1.698   0.212   3.199
  856SOL  HW2   3423   1.688   0.093   3.106
  856SOL  MW    3424   1.686   0.126   3.187
  857SOL  OW    3425   1.705   0.193   3.500
  857SOL  HW1   3426   1.682   0.251   3.426
  857SOL  HW2   3427   1.788   0.228   3.532
  857SOL  MW    3428   1.712   0.205   3.494
  858SOL  OW    3429   1.697   0.174   3.872
  858SOL  HW1   3430   1.678   0.267   3.886
  858SOL  HW2   3431   1.611   0.131   3.877
  858SOL  MW    3432   1.684   0.180   3.875
  859SOL  OW    3433   1.696   0.471   0.170
  859SOL  HW1   3434   1.680   0.539   0.235
  859SOL  HW2   3435   1.780   0.494   0.131
  859SOL  MW    3436   1.705   0.483   0.173
  860SOL  OW    3437   1.721   0.431   0.496
  860SOL  HW1   3438   1.808   0.420   0.534
  860SOL  HW2   3439   1.726   0.386   0.411
  860SOL  MW    3440   1.733   0.424   0.490
  861SOL  OW    3441   1.654   0.488   0.735
  861SOL  HW1   3442   1.566   0.487   0.700
  861SOL  HW2   3443   1.710   0.506   0.660
  861SOL  MW    3444   1.650   0.490   0.721
  862SOL  OW    3445   1.668   0.422   1.073
  862SOL  HW1   3446   1.606   0.465   1.131
  862SOL  HW2   3447   1.723   0.369   1.130
  862SOL  MW    3448   1.667   0.421   1.087
  863SOL  OW    3449   1.679   0.435   1.381
  863SOL  HW1   3450   1.606   0.477   1.427
  863SOL  HW2   3451   1.754   0.491   1.398
  863SOL  MW    3452   1.679   0.447   1.389
  864SOL  OW    3453   1.684   0.483   1.724
  864SOL  HW1   3454   1.771   0.519   1.703
  864SOL  HW2   3455   1.629   0.510   1.650
  864SOL  MW    3456   1.688   0.491   1.712
  865SOL  OW    3457   1.705   0.431   1.984
  865SOL  HW1   3458   1.774   0.370   2.007
  865SOL  HW2   3459   1.625   0.392   2.019
  865SOL  MW    3460   1.703   0.419   1.991
  866SOL  OW    3461   1.725   0.429   2.300
  866SOL  HW1   3462   1.652   0.428   2.239
  866SOL  HW2   3463   1.685   0.432   2.387
  866SOL  MW    3464   1.711   0.429   2.303
  867SOL  OW    3465   1.728   0.498   2.608
  867SOL  HW1   3466   1.685   0.549   2.677
  867SOL  HW2   3467   1.672   0.510   2.531
  867SOL  MW    3468   1.715   0.506   2.607
  868SOL  OW    3469   1.706   0.458   2.943
  868SOL  HW1   3470   1.774   0.522   2.921
  868SOL  HW2   3471   1.625   0.496   2.910
  868SOL  MW    3472   1.704   0.471   2.936
  869SOL  OW    3473   1.655   0.433   3.240
  869SOL  HW1   3474   1.694   0.406   3.323
  869SOL  HW2   3475   1.707   0.390   3.173
  869SOL  MW    3476   1.667   0.424   3.242
  870SOL  OW    3477   1.671   0.475   3.527
  870SOL  HW1   3478   1.717   0.529   3.591
  870SOL  HW2   3479   1.738   0.453   3.462
  870SOL  MW    3480   1.685   0.479   3.527
  871SOL  OW    3481   1.723   0.487   3.846
  871SOL  HW1   3482   1.664   0.435   3.900
  871SOL  HW2   3483   1.755   0.426   3.779
  871SOL  MW    3484   1.720   0.473   3.844
  872SOL  OW    3485   1.714   0.751   0.153
  872SOL  HW1   3486   1.676   0.663   0.154
  872SOL  HW2   3487   1.768   0.755   0.233
  872SOL  MW    3488   1.716   0.740   0.164
  873SOL  OW    3489   1.668   0.798   0.487
  873SOL  HW1   3490   1.676   0.807   0.392
  873SOL  HW2   3491   1.711   0.876   0.523
  873SOL  MW    3492   1.675   0.809   0.480
  874SOL  OW    3493   1.724   0.799   0.806
  874SOL  HW1   3494   1.748   0.716   0.847
  874SOL  HW2   3495   1.663   0.775   0.737
  874SOL  MW    3496   1.720   0.786   0.802
  875SOL  OW    3497   1.671   0.804   1.083
  875SOL  HW1   3498   1.627   0.853   1.013
  875SOL  HW2   3499   1.726   0.741   1.037
  875SOL  MW    3500   1.672   0.802   1.068
  876SOL  OW    3501   1.686   0.774   1.372
  876SOL  HW1   3502   1.692   0.690   1.417
  876SOL  HW2   3503   1.677   0.839   1.442
  876SOL  MW    3504   1.686   0.772   1.387
  877SOL  OW    3505   1.675   0.749   1.659
  877SOL  HW1   3506   1.617   0.743   1.735
  877SOL  HW2   3507   1.763   0.736   1.695
  877SOL  MW    3508   1.679   0.746   1.673
  878SOL  OW    3509   1.692   0.800   2.010
  878SOL  HW1   3510   1.695   0.886   2.054
  878SOL  HW2   3511   1.783   0.769   2.011
  878SOL  MW    3512   1.704   0.807   2.016
  879SOL  OW    3513   1.694   0.764   2.305
  879SOL  HW1   3514   1.628   0.716   2.355
  879SOL  HW2   3515   1.749   0.805   2.371
  879SOL  MW    3516   1.693   0.763   2.320
  880SOL  OW    3517   1.669   0.795   2.591
  880SOL  HW1   3518   1.620   0.715   2.608
  880SOL  HW2   3519   1.606   0.853   2.549
  880SOL  MW    3520   1.655   0.792   2.588
  881SOL  OW    3521   1.710   0.790   2.929
  881SOL  HW1   3522   1.663   0.711   2.900
  881SOL  HW2   3523   1.645   0.838   2.980
  881SOL  MW    3524   1.695   0.786   2.932
  882SOL  OW    3525   1.721   0.753   3.261
  882SOL  HW1   3526   1.736   0.663   3.292
  882SOL  HW2   3527   1.778   0.761   3.185
  882SOL  MW    3528   1.731   0.742   3.255
  883SOL  OW    3529   1.711   0.793   3.552
  883SOL  HW1   3530   1.627   0.750   3.570
  883SOL  HW2   3531   1.706   0.875   3.600
  883SOL  MW    3532   1.699   0.798   3.560
  884SOL  OW    3533   1.720   0.809   3.840
  884SOL  HW1   3534   1.755   0.897   3.853
  884SOL  HW2   3535   1.797   0.754   3.825
  884SOL  MW    3536   1.734   0.813   3.840
  885SOL  OW    3537   1.717   1.096   0.150
  885SOL  HW1   3538   1.765   1.034   0.095
  885SOL  HW2   3539   1.784   1.161   0.176
  885SOL  MW    3540   1.732   1.097   0.146
  886SOL  OW    3541   1.726   1.068   0.467
  886SOL  HW1   3542   1.787   1.100   0.400
  886SOL  HW2   3543   1.686   1.148   0.502
  886SOL  MW    3544   1.729   1.083   0.463
  887SOL  OW    3545   1.661   1.055   0.796
  887SOL  HW1   3546   1.568   1.052   0.820
  887SOL  HW2   3547   1.665   1.010   0.712
  887SOL  MW    3548   1.649   1.049   0.789
  888SOL  OW    3549   1.684   1.068   1.057
  888SOL  HW1   3550   1.592   1.059   1.033
  888SOL  HW2   3551   1.683   1.105   1.145
  888SOL  MW    3552   1.672   1.072   1.065
  889SOL  OW    3553   1.692   1.101   1.416
  889SOL  HW1   3554   1.767   1.145   1.376
  889SOL  HW2   3555   1.729   1.028   1.465
  889SOL  MW    3556   1.706   1.098   1.417
  890SOL  OW    3557   1.658   1.083   1.690
  890SOL  HW1   3558   1.635   1.175   1.674
  890SOL  HW2   3559   1.754   1.082   1.689
  890SOL  MW    3560   1.667   1.094   1.688
  891SOL  OW    3561   1.701   1.073   1.992
  891SOL  HW1   3562   1.786   1.042   1.960
  891SOL  HW2   3563   1.686   1.022   2.072
  891SOL  MW    3564   1.710   1.062   1.998
  892SOL  OW    3565   1.690   1.083   2.308
  892SOL  HW1   3566   1.685   0.996   2.346
  892SOL  HW2   3567   1.781   1.109   2.320
  892SOL  MW    3568   1.701   1.076   2.314
  893SOL  OW    3569   1.690   1.102   2.635
  893SOL  HW1   3570   1.659   1.013   2.651
  893SOL  HW2   3571   1.667   1.151   2.714
  893SOL  MW    3572   1.683   1.097   2.647
  894SOL  OW    3573   1.680   1.101   2.951
  894SOL  HW1   3574   1.768   1.064   2.951
  894SOL  HW2   3575   1.631   1.045   3.012
  894SOL  MW    3576   1.685   1.089   2.959
  895SOL  OW    3577   1.665   1.084   3.214
  895SOL  HW1   3578   1.575   1.072   3.246
  895SOL  HW2   3579   1.675   1.178   3.205
  895SOL  MW    3580   1.654   1.094   3.217
  896SOL  OW    3581   1.711   1.056   3.552
  896SOL  HW1   3582   1.624   1.025   3.528
  896SOL  HW2   3583   1.760   1.057   3.470
  896SOL  MW    3584   1.706   1.052   3.539
  897SOL  OW    3585   1.673   1.078   3.882
  897SOL  HW1   3586   1.727   1.018   3.933
  897SOL  HW2   3587   1.595   1.092   3.936
  897SOL  MW    3588   1.670   1.072   3.896
  898SOL  OW    3589   1.683   1.415   0.193
  898SOL  HW1   3590   1.765   1.451   0.159
  898SOL  HW2   3591   1.614   1.466   0.151
  898SOL  MW    3592   1.685   1.426   0.183
  899SOL  OW    3593   1.722   1.358   0.487
  899SOL  HW1   3594   1.702   1.268   0.512
  899SOL  HW2   3595   1.789   1.386   0.550
  899SOL  MW    3596   1.728   1.350   0.498
  900SOL  OW    3597   1.655   1.376   0.799
  900SOL  HW1   3598   1.745   1.396   0.773
  900SOL  HW2   3599   1.601   1.408   0.727
  900SOL  MW    3600   1.659   1.383   0.786
  901SOL  OW    3601   1.707   1.387   1.068
  901SOL  HW1   3602   1.723   1.313   1.126
  901SOL  HW2   3603   1.612   1.390   1.058
  901SOL  MW    3604   1.697   1.378   1.074
  902SOL  OW    3605   1.717   1.401   1.382
  902SOL  HW1   3606   1.806   1.417   1.413
  902SOL  HW2   3607   1.725   1.325   1.326
  902SOL  MW    3608   1.730   1.394   1.379
  903SOL  OW    3609   1.724   1.363   1.666
  903SOL  HW1   3610   1.764   1.299   1.724
  903SOL  HW2   3611   1.639   1.325   1.643
  903SOL  MW    3612   1.718   1.350   1.671
  904SOL  OW    3613   1.704   1.422   1.980
  904SOL  HW1   3614   1.630   1.402   2.037
  904SOL  HW2   3615   1.668   1.416   1.891
  904SOL  MW    3616   1.690   1.419   1.976
  905SOL  OW    3617   1.672   1.356   2.337
  905SOL  HW1   3618   1.727   1.414   2.283
  905SOL  HW2   3619   1.606   1.322   2.276
  905SOL  MW    3620   1.671   1.359   2.322
  906SOL  OW    3621   1.670   1.385   2.655
  906SOL  HW1   3622   1.667   1.433   2.738
  906SOL  HW2   3623   1.623   1.303   2.672
  906SOL  MW    3624   1.664   1.381   2.667
  907SOL  OW    3625   1.653   1.389   2.924
  907SOL  HW1   3626   1.671   1.465   2.869
  907SOL  HW2   3627   1.559   1.375   2.915
  907SOL  MW    3628   1.643   1.397   2.916
  908SOL  OW    3629   1.717   1.373   3.224
  908SOL  HW1   3630   1.764   1.410   3.298
  908SOL  HW2   3631   1.785   1.339   3.166
  908SOL  MW    3632   1.732   1.373   3.226
  909SOL  OW    3633   1.666   1.404   3.561
  909SOL  HW1   3634   1.634   1.430   3.648
  909SOL  HW2   3635   1.671   1.308   3.566
  909SOL  MW    3636   1.662   1.395   3.573
  910SOL  OW    3637   1.663   1.376   3.878
  910SOL  HW1   3638   1.689   1.385   3.786
  910SOL  HW2   3639   1.570   1.356   3.875
  910SOL  MW    3640   1.655   1.375   3.865
  911SOL  OW    3641   1.653   1.676   0.158
  911SOL  HW1   3642   1.650   1.642   0.069
  911SOL  HW2   3643   1.734   1.727   0.162
  911SOL  MW    3644   1.663   1.678   0.147
  912SOL  OW    3645   1.679   1.674   0.458
  912SOL  HW1   3646   1.764   1.718   0.452
  912SOL  HW2   3647   1.616   1.745   0.472
  912SOL  MW    3648   1.682   1.689   0.459
  913SOL  OW    3649   1.667   1.695   0.786
  913SOL  HW1   3650   1.605   1.686   0.713
  913SOL  HW2   3651   1.748   1.655   0.753
  913SOL  MW    3652   1.669   1.689   0.772
  914SOL  OW    3653   1.698   1.660   1.104
  914SOL  HW1   3654   1.687   1.750   1.074
  914SOL  HW2   3655   1.675   1.605   1.029
  914SOL  MW    3656   1.694   1.664   1.091
  915SOL  OW    3657   1.666   1.713   1.373
  915SOL  HW1   3658   1.589   1.748   1.328
  915SOL  HW2   3659   1.671   1.763   1.455
  915SOL  MW    3660   1.657   1.724   1.378
  916SOL  OW    3661   1.715   1.669   1.667
  916SOL  HW1   3662   1.803   1.691   1.637
  916SOL  HW2   3663   1.683   1.749   1.709
  916SOL  MW    3664   1.722   1.682   1.669
  917SOL  OW    3665   1.692   1.655   1.978
  917SOL  HW1   3666   1.689   1.736   1.927
  917SOL  HW2   3667   1.744   1.594   1.925
  917SOL  MW    3668   1.698   1.658   1.965
  918SOL  OW    3669   1.710   1.719   2.274
  918SOL  HW1   3670   1.672   1.757   2.195
  918SOL  HW2   3671   1.668   1.634   2.283
  918SOL  MW    3672   1.700   1.713   2.265
  919SOL  OW    3673   1.723   1.716   2.645
  919SOL  HW1   3674   1.669   1.738   2.569
  919SOL  HW2   3675   1.724   1.796   2.697
  919SOL  MW    3676   1.716   1.729   2.642
  920SOL  OW    3677   1.708   1.706   2.925
  920SOL  HW1   3678   1.755   1.677   2.847
  920SOL  HW2   3679   1.628   1.746   2.891
  920SOL  MW    3680   1.704   1.708   2.911
  921SOL  OW    3681   1.705   1.726   3.199
  921SOL  HW1   3682   1.714   1.759   3.110
  921SOL  HW2   3683   1.690   1.804   3.252
  921SOL  MW    3684   1.704   1.740   3.194
  922SOL  OW    3685   1.678   1.658   3.574
  922SOL  HW1   3686   1.601   1.609   3.544
  922SOL  HW2   3687   1.654   1.750   3.559
  922SOL  MW    3688   1.665   1.664   3.568
  923SOL  OW    3689   1.688   1.706   3.873
  923SOL  HW1   3690   1.607   1.681   3.917
  923SOL  HW2   3691   1.677   1.800   3.854
  923SOL  MW    3692   1.676   1.715   3.877
  924SOL  OW    3693   1.732   1.973   0.178
  924SOL  HW1   3694   1.793   1.932   0.117
  924SOL  HW2   3695   1.785   2.035   0.227
  924SOL  MW    3696   1.746   1.976   0.176
  925SOL  OW    3697   1.723   1.964   0.482
  925SOL  HW1   3698   1.728   1.974   0.577
  925SOL  HW2   3699   1.710   2.053   0.449
  925SOL  MW    3700   1.722   1.977   0.490
  926SOL  OW    3701   1.681   2.012   0.770
  926SOL  HW1   3702   1.590   2.033   0.749
  926SOL  HW2   3703   1.685   2.018   0.866
  926SOL  MW    3704   1.670   2.015   0.780
  927SOL  OW    3705   1.673   1.971   1.046
  927SOL  HW1   3706   1.674   1.905   1.116
  927SOL  HW2   3707   1.599   2.027   1.068
  927SOL  MW    3708   1.664   1.970   1.058
  928SOL  OW    3709   1.661   2.011   1.373
  928SOL  HW1   3710   1.633   2.092   1.416
  928SOL  HW2   3711   1.649   1.943   1.439
  928SOL  MW    3712   1.656   2.013   1.387
  929SOL  OW    3713   1.670   2.015   1.707
  929SOL  HW1   3714   1.615   2.062   1.770
  929SOL  HW2   3715   1.732   1.967   1.761
  929SOL  MW    3716   1.671   2.015   1.722
  930SOL  OW    3717   1.695   2.035   1.991
  930SOL  HW1   3718   1.781   2.000   1.965
  930SOL  HW2   3719   1.686   2.115   1.940
  930SOL  MW    3720   1.705   2.041   1.981
  931SOL  OW    3721   1.719   1.966   2.327
  931SOL  HW1   3722   1.688   2.050   2.293
  931SOL  HW2   3723   1.807   1.984   2.359
  931SOL  MW    3724   1.726   1.979   2.327
  932SOL  OW    3725   1.731   2.028   2.622
  932SOL  HW1   3726   1.683   2.095   2.574
  932SOL  HW2   3727   1.796   2.077   2.673
  932SOL  MW    3728   1.733   2.043   2.622
  933SOL  OW    3729   1.702   1.988   2.937
  933SOL  HW1   3730   1.685   1.898   2.912
  933SOL  HW2   3731   1.629   2.038   2.902
  933SOL  MW    3732   1.691   1.983   2.930
  934SOL  OW    3733   1.714   2.040   3.230
  934SOL  HW1   3734   1.720   2.133   3.253
  934SOL  HW2   3735   1.646   2.005   3.288
  934SOL  MW    3736   1.706   2.047   3.241
  935SOL  OW    3737   1.657   2.008   3.508
  935SOL  HW1   3738   1.729   1.952   3.478
  935SOL  HW2   3739   1.685   2.039   3.594
  935SOL  MW    3740   1.670   2.004   3.515
  936SOL  OW    3741   1.672   1.986   3.865
  936SOL  HW1   3742   1.620   2.066   3.856
  936SOL  HW2   3743   1.692   1.980   3.958
  936SOL  MW    3744   1.668   1.996   3.876
  937SOL  OW    3745   1.667   2.281   0.117
  937SOL  HW1   3746   1.620   2.353   0.076
  937SOL  HW2   3747   1.618   2.263   0.198
  937SOL  MW    3748   1.655   2.288   0.122
  938SOL  OW    3749   1.722   2.323   0.425
  938SOL  HW1   3750   1.733   2.379   0.347
  938SOL  HW2   3751   1.693   2.383   0.494
  938SOL  MW    3752   1.720   2.338   0.424
  939SOL  OW    3753   1.655   2.312   0.752
  939SOL  HW1   3754   1.576   2.324   0.805
  939SOL  HW2   3755   1.658   2.390   0.697
  939SOL  MW    3756   1.645   2.324   0.752
  940SOL  OW    3757   1.700   2.302   1.111
  940SOL  HW1   3758   1.677   2.353   1.188
  940SOL  HW2   3759   1.617   2.285   1.067
  940SOL  MW    3760   1.686   2.307   1.115
  941SOL  OW    3761   1.675   2.322   1.349
  941SOL  HW1   3762   1.662   2.405   1.304
  941SOL  HW2   3763   1.768   2.301   1.335
  941SOL  MW    3764   1.685   2.330   1.341
  942SOL  OW    3765   1.729   2.346   1.711
  942SOL  HW1   3766   1.649   2.360   1.762
  942SOL  HW2   3767   1.719   2.258   1.675
  942SOL  MW    3768   1.717   2.337   1.713
  943SOL  OW    3769   1.690   2.285   2.025
  943SOL  HW1   3770   1.624   2.216   2.017
  943SOL  HW2   3771   1.638   2.365   2.040
  943SOL  MW    3772   1.675   2.287   2.026
  944SOL  OW    3773   1.711   2.285   2.304
  944SOL  HW1   3774   1.644   2.270   2.238
  944SOL  HW2   3775   1.793   2.261   2.261
  944SOL  MW    3776   1.713   2.280   2.290
  945SOL  OW    3777   1.689   2.334   2.630
  945SOL  HW1   3778   1.763   2.327   2.570
  945SOL  HW2   3779   1.725   2.307   2.715
  945SOL  MW    3780   1.703   2.330   2.633
  946SOL  OW    3781   1.704   2.320   2.905
  946SOL  HW1   3782   1.723   2.266   2.828
  946SOL  HW2   3783   1.773   2.298   2.967
  946SOL  MW    3784   1.715   2.310   2.903
  947SOL  OW    3785   1.682   2.271   3.254
  947SOL  HW1   3786   1.641   2.224   3.326
  947SOL  HW2   3787   1.622   2.260   3.180
  947SOL  MW    3788   1.669   2.264   3.254
  948SOL  OW    3789   1.687   2.303   3.518
  948SOL  HW1   3790   1.652   2.342   3.438
  948SOL  HW2   3791   1.662   2.364   3.587
  948SOL  MW    3792   1.679   2.316   3.517
  949SOL  OW    3793   1.669   2.315   3.825
  949SOL  HW1   3794   1.661   2.332   3.731
  949SOL  HW2   3795   1.642   2.396   3.867
  949SOL  MW    3796   1.664   2.327   3.818
  950SOL  OW    3797   1.657   2.637   0.144
  950SOL  HW1   3798   1.724   2.670   0.084
  950SOL  HW2   3799   1.581   2.692   0.129
  950SOL  MW    3800   1.656   2.648   0.134
  951SOL  OW    3801   1.683   2.610   0.487
  951SOL  HW1   3802   1.653   2.595   0.577
  951SOL  HW2   3803   1.678   2.524   0.445
  951SOL  MW    3804   1.678   2.597   0.493
  952SOL  OW    3805   1.678   2.636   0.804
  952SOL  HW1   3806   1.653   2.718   0.761
  952SOL  HW2   3807   1.601   2.580   0.797
  952SOL  MW    3808   1.665   2.639   0.798
  953SOL  OW    3809   1.705   2.610   1.097
  953SOL  HW1   3810   1.735   2.698   1.121
  953SOL  HW2   3811   1.659   2.622   1.014
  953SOL  MW    3812   1.703   2.623   1.089
  954SOL  OW    3813   1.689   2.609   1.387
  954SOL  HW1   3814   1.706   2.586   1.295
  954SOL  HW2   3815   1.636   2.536   1.420
  954SOL  MW    3816   1.684   2.596   1.379
  955SOL  OW    3817   1.678   2.584   1.685
  955SOL  HW1   3818   1.606   2.568   1.747
  955SOL  HW2   3819   1.648   2.657   1.632
  955SOL  MW    3820   1.665   2.591   1.686
  956SOL  OW    3821   1.662   2.608   2.005
  956SOL  HW1   3822   1.663   2.541   1.937
  956SOL  HW2   3823   1.748   2.651   1.997
  956SOL  MW    3824   1.673   2.605   1.995
  957SOL  OW    3825   1.727   2.578   2.317
  957SOL  HW1   3826   1.796   2.537   2.369
  957SOL  HW2   3827   1.645   2.544   2.354
  957SOL  MW    3828   1.725   2.569   2.329
  958SOL  OW    3829   1.689   2.577   2.595
  958SOL  HW1   3830   1.712   2.656   2.547
  958SOL  HW2   3831   1.750   2.511   2.564
  958SOL  MW    3832   1.700   2.579   2.585
  959SOL  OW    3833   1.662   2.593   2.905
  959SOL  HW1   3834   1.673   2.537   2.828
  959SOL  HW2   3835   1.745   2.640   2.912
  959SOL  MW    3836   1.674   2.592   2.896
  960SOL  OW    3837   1.684   2.618   3.191
  960SOL  HW1   3838   1.714   2.642   3.103
  960SOL  HW2   3839   1.621   2.685   3.214
  960SOL  MW    3840   1.680   2.629   3.183
  961SOL  OW    3841   1.665   2.583   3.542
  961SOL  HW1   3842   1.749   2.578   3.496
  961SOL  HW2   3843   1.600   2.562   3.476
  961SOL  MW    3844   1.668   2.579   3.528
  962SOL  OW    3845   1.679   2.619   3.824
  962SOL  HW1   3846   1.756   2.591   3.873
  962SOL  HW2   3847   1.629   2.672   3.886
  962SOL  MW    3848   1.682   2.622   3.838
  963SOL  OW    3849   1.654   2.958   0.123
  963SOL  HW1   3850   1.626   2.972   0.032
  963SOL  HW2   3851   1.573   2.941   0.171
  963SOL  MW    3852   1.640   2.958   0.117
  964SOL  OW    3853   1.662   2.895   0.500
  964SOL  HW1   3854   1.725   2.824   0.483
  964SOL  HW2   3855   1.577   2.856   0.484
  964SOL  MW    3856   1.659   2.881   0.496
  965SOL  OW    3857   1.702   2.932   0.808
  965SOL  HW1   3858   1.692   2.941   0.903
  965SOL  HW2   3859   1.633   2.988   0.772
  965SOL  MW    3860   1.692   2.940   0.816
  966SOL  OW    3861   1.659   2.961   1.053
  966SOL  HW1   3862   1.568   2.941   1.034
  966SOL  HW2   3863   1.659   3.054   1.075
  966SOL  MW    3864   1.648   2.970   1.054
  967SOL  OW    3865   1.702   2.917   1.375
  967SOL  HW1   3866   1.732   2.833   1.339
  967SOL  HW2   3867   1.608   2.905   1.387
  967SOL  MW    3868   1.694   2.905   1.372
  968SOL  OW    3869   1.727   2.895   1.732
  968SOL  HW1   3870   1.742   2.813   1.779
  968SOL  HW2   3871   1.635   2.890   1.706
  968SOL  MW    3872   1.717   2.884   1.735
  969SOL  OW    3873   1.683   2.935   2.037
  969SOL  HW1   3874   1.774   2.947   2.013
  969SOL  HW2   3875   1.644   2.890   1.963
  969SOL  MW    3876   1.689   2.931   2.025
  970SOL  OW    3877   1.657   2.957   2.313
  970SOL  HW1   3878   1.629   2.954   2.222
  970SOL  HW2   3879   1.671   2.865   2.337
  970SOL  MW    3880   1.655   2.945   2.304
  971SOL  OW    3881   1.709   2.895   2.618
  971SOL  HW1   3882   1.667   2.904   2.704
  971SOL  HW2   3883   1.665   2.960   2.563
  971SOL  MW    3884   1.698   2.904   2.622
  972SOL  OW    3885   1.706   2.920   2.895
  972SOL  HW1   3886   1.735   3.009   2.879
  972SOL  HW2   3887   1.623   2.930   2.942
  972SOL  MW    3888   1.699   2.932   2.899
  973SOL  OW    3889   1.672   2.951   3.194
  973SOL  HW1   3890   1.733   2.999   3.250
  973SOL  HW2   3891   1.707   2.863   3.190
  973SOL  MW    3892   1.684   2.946   3.200
  974SOL  OW    3893   1.709   2.963   3.499
  974SOL  HW1   3894   1.672   3.020   3.567
  974SOL  HW2   3895   1.683   3.004   3.417
  974SOL  MW    3896   1.701   2.976   3.497
  975SOL  OW    3897   1.665   2.937   3.811
  975SOL  HW1   3898   1.667   2.864   3.749
  975SOL  HW2   3899   1.580   2.979   3.797
  975SOL  MW    3900   1.655   2.933   3.801
  976SOL  OW    3901   1.699   3.245   0.161
  976SOL  HW1   3902   1.630   3.206   0.213
  976SOL  HW2   3903   1.695   3.201   0.076
  976SOL  MW    3904   1.690   3.235   0.157
  977SOL  OW    3905   1.682   3.247   0.469
  977SOL  HW1   3906   1.706   3.156   0.488
  977SOL  HW2   3907   1.706   3.295   0.548
  977SOL  MW    3908   1.688   3.241   0.482
  978SOL  OW    3909   1.669   3.236   0.800
  978SOL  HW1   3910   1.744   3.192   0.840
  978SOL  HW2   3911   1.617   3.165   0.762
  978SOL  MW    3912   1.672   3.221   0.800
  979SOL  OW    3913   1.706   3.229   1.063
  979SOL  HW1   3914   1.621   3.251   1.101
  979SOL  HW2   3915   1.738   3.311   1.026
  979SOL  MW    3916   1.699   3.242   1.063
  980SOL  OW    3917   1.659   3.210   1.346
  980SOL  HW1   3918   1.591   3.260   1.300
  980SOL  HW2   3919   1.633   3.119   1.335
  980SOL  MW    3920   1.647   3.205   1.338
  981SOL  OW    3921   1.731   3.209   1.717
  981SOL  HW1   3922   1.765   3.279   1.773
  981SOL  HW2   3923   1.663   3.167   1.771
  981SOL  MW    3924   1.727   3.212   1.731
  982SOL  OW    3925   1.666   3.213   1.993
  982SOL  HW1   3926   1.688   3.156   1.920
  982SOL  HW2   3927   1.588   3.173   2.033
  982SOL  MW    3928   1.659   3.201   1.989
  983SOL  OW    3929   1.678   3.255   2.344
  983SOL  HW1   3930   1.721   3.315   2.405
  983SOL  HW2   3931   1.742   3.184   2.332
  983SOL  MW    3932   1.692   3.253   2.351
  984SOL  OW    3933   1.722   3.203   2.638
  984SOL  HW1   3934   1.652   3.209   2.702
  984SOL  HW2   3935   1.789   3.148   2.679
  984SOL  MW    3936   1.722   3.197   2.651
  985SOL  OW    3937   1.664   3.264   2.925
  985SOL  HW1   3938   1.669   3.308   3.009
  985SOL  HW2   3939   1.642   3.333   2.863
  985SOL  MW    3940   1.662   3.278   2.927
  986SOL  OW    3941   1.679   3.203   3.192
  986SOL  HW1   3942   1.661   3.297   3.204
  986SOL  HW2   3943   1.601   3.159   3.226
  986SOL  MW    3944   1.667   3.210   3.198
  987SOL  OW    3945   1.672   3.264   3.562
  987SOL  HW1   3946   1.698   3.315   3.639
  987SOL  HW2   3947   1.697   3.174   3.584
  987SOL  MW    3948   1.679   3.259   3.575
  988SOL  OW    3949   1.730   3.199   3.854
  988SOL  HW1   3950   1.638   3.223   3.844
  988SOL  HW2   3951   1.770   3.224   3.770
  988SOL  MW    3952   1.723   3.205   3.842
  989SOL  OW    3953   1.673   3.542   0.139
  989SOL  HW1   3954   1.630   3.496   0.067
  989SOL  HW2   3955   1.730   3.476   0.179
  989SOL  MW    3956   1.675   3.528   0.135
  990SOL  OW    3957   1.675   3.544   0.436
  990SOL  HW1   3958   1.698   3.627   0.393
  990SOL  HW2   3959   1.637   3.571   0.520
  990SOL  MW    3960   1.673   3.558   0.441
  991SOL  OW    3961   1.690   3.551   0.739
  991SOL  HW1   3962   1.640   3.522   0.663
  991SOL  HW2   3963   1.781   3.544   0.713
  991SOL  MW    3964   1.695   3.546   0.726
  992SOL  OW    3965   1.727   3.539   1.102
  992SOL  HW1   3966   1.685   3.566   1.184
  992SOL  HW2   3967   1.673   3.579   1.034
  992SOL  MW    3968   1.715   3.547   1.104
  993SOL  OW    3969   1.705   3.555   1.402
  993SOL  HW1   3970   1.701   3.609   1.323
  993SOL  HW2   3971   1.651   3.479   1.382
  993SOL  MW    3972   1.697   3.552   1.389
  994SOL  OW    3973   1.722   3.548   1.675
  994SOL  HW1   3974   1.705   3.470   1.728
  994SOL  HW2   3975   1.816   3.544   1.657
  994SOL  MW    3976   1.732   3.537   1.679
  995SOL  OW    3977   1.660   3.547   1.965
  995SOL  HW1   3978   1.671   3.617   1.901
  995SOL  HW2   3979   1.598   3.487   1.924
  995SOL  MW    3980   1.654   3.548   1.952
  996SOL  OW    3981   1.672   3.503   2.312
  996SOL  HW1   3982   1.734   3.525   2.381
  996SOL  HW2   3983   1.696   3.415   2.285
  996SOL  MW    3984   1.683   3.495   2.317
  997SOL  OW    3985   1.665   3.547   2.639
  997SOL  HW1   3986   1.746   3.542   2.690
  997SOL  HW2   3987   1.632   3.458   2.637
  997SOL  MW    3988   1.671   3.535   2.645
  998SOL  OW    3989   1.718   3.523   2.927
  998SOL  HW1   3990   1.812   3.536   2.911
  998SOL  HW2   3991   1.712   3.496   3.019
  998SOL  MW    3992   1.729   3.521   2.937
  999SOL  OW    3993   1.697   3.536   3.243
  999SOL  HW1   3994   1.612   3.565   3.210
  999SOL  HW2   3995   1.695   3.441   3.235
  999SOL  MW    3996   1.686   3.528   3.238
 1000SOL  OW    3997   1.669   3.577   3.506
 1000SOL  HW1   3998   1.681   3.591   3.412
 1000SOL  HW2   3999   1.577   3.551   3.515
 1000SOL  MW    4000   1.659   3.575   3.495
 1001SOL  OW    4001   1.719   3.546   3.826
 1001SOL  HW1   4002   1.725   3.452   3.842
 1001SOL  HW2   4003   1.751   3.586   3.907
 1001SOL  MW    4004   1.724   3.539   3.838
 1002SOL  OW    4005   1.712   3.813   0.176
 1002SOL  HW1   4006   1.683   3.875   0.243
 1002SOL  HW2   4007   1.746   3.868   0.105
 1002SOL  MW    4008   1.713   3.828   0.175
 1003SOL  OW    4009   1.700   3.815   0.428
 1003SOL  HW1   4010   1.791   3.789   0.437
 1003SOL  HW2   4011   1.694   3.900   0.472
 1003SOL  MW    4012   1.711   3.823   0.435
 1004SOL  OW    4013   1.712   3.830   0.800
 1004SOL  HW1   4014   1.739   3.838   0.709
 1004SOL  HW2   4015   1.669   3.912   0.821
 1004SOL  MW    4016   1.710   3.841   0.791
 1005SOL  OW    4017   1.713   3.862   1.059
 1005SOL  HW1   4018   1.676   3.929   1.002
 1005SOL  HW2   4019   1.807   3.866   1.042
 1005SOL  MW    4020   1.721   3.871   1.050
 1006SOL  OW    4021   1.709   3.882   1.352
 1006SOL  HW1   4022   1.631   3.938   1.346
 1006SOL  HW2   4023   1.782   3.943   1.364
 1006SOL  MW    4024   1.708   3.897   1.353
 1007SOL  OW    4025   1.678   3.825   1.684
 1007SOL  HW1   4026   1.763   3.866   1.703
 1007SOL  HW2   4027   1.635   3.820   1.769
 1007SOL  MW    4028   1.684   3.830   1.697
 1008SOL  OW    4029   1.712   3.844   2.006
 1008SOL  HW1   4030   1.617   3.833   1.995
 1008SOL  HW2   4031   1.732   3.922   1.954
 1008SOL  MW    4032   1.702   3.853   1.998
 1009SOL  OW    4033   1.677   3.817   2.289
 1009SOL  HW1   4034   1.631   3.884   2.238
 1009SOL  HW2   4035   1.733   3.773   2.225
 1009SOL  MW    4036   1.679   3.820   2.274
 1010SOL  OW    4037   1.721   3.854   2.606
 1010SOL  HW1   4038   1.677   3.852   2.691
 1010SOL  HW2   4039   1.706   3.943   2.573
 1010SOL  MW    4040   1.714   3.865   2.612
 1011SOL  OW    4041   1.716   3.811   2.903
 1011SOL  HW1   4042   1.623   3.825   2.923
 1011SOL  HW2   4043   1.757   3.803   2.989
 1011SOL  MW    4044   1.709   3.812   2.917
 1012SOL  OW    4045   1.671   3.885   3.247
 1012SOL  HW1   4046   1.650   3.868   3.339
 1012SOL  HW2   4047   1.586   3.879   3.202
 1012SOL  MW    4048   1.657   3.882   3.253
 1013SOL  OW    4049   1.702   3.807   3.513
 1013SOL  HW1   4050   1.791   3.829   3.538
 1013SOL  HW2   4051   1.651   3.817   3.594
 1013SOL  MW    4052   1.707   3.811   3.527
 1014SOL  OW    4053   1.703   3.837   3.880
 1014SOL  HW1   4054   1.754   3.840   3.961
 1014SOL  HW2   4055   1.613   3.823   3.909
 1014SOL  MW    4056   1.698   3.835   3.894
 1015SOL  OW    4057   2.021   0.150   0.174
 1015SOL  HW1   4058   2.036   0.240   0.202
 1015SOL  HW2   4059   2.107   0.108   0.180
 1015SOL  MW    4060   2.034   0.156   0.178
 1016SOL  OW    4061   2.038   0.151   0.473
 1016SOL  HW1   4062   2.058   0.244   0.471
 1016SOL  HW2   4063   1.979   0.140   0.547
 1016SOL  MW    4064   2.033   0.161   0.482
 1017SOL  OW    4065   2.033   0.134   0.800
 1017SOL  HW1   4066   2.045   0.185   0.880
 1017SOL  HW2   4067   2.123   0.112   0.773
 1017SOL  MW    4068   2.046   0.138   0.807
 1018SOL  OW    4069   1.968   0.166   1.100
 1018SOL  HW1   4070   2.013   0.144   1.018
 1018SOL  HW2   4071   1.879   0.132   1.087
 1018SOL  MW    4072   1.962   0.159   1.088
 1019SOL  OW    4073   2.009   0.153   1.394
 1019SOL  HW1   4074   2.086   0.210   1.385
 1019SOL  HW2   4075   1.934   0.213   1.386
 1019SOL  MW    4076   2.009   0.168   1.392
 1020SOL  OW    4077   1.972   0.131   1.674
 1020SOL  HW1   4078   2.036   0.157   1.608
 1020SOL  HW2   4079   2.019   0.069   1.730
 1020SOL  MW    4080   1.986   0.126   1.673
 1021SOL  OW    4081   2.008   0.149   1.980
 1021SOL  HW1   4082   1.999   0.183   1.891
 1021SOL  HW2   4083   1.935   0.088   1.990
 1021SOL  MW    4084   1.997   0.146   1.969
 1022SOL  OW    4085   2.031   0.144   2.303
 1022SOL  HW1   4086   1.970   0.182   2.367
 1022SOL  HW2   4087   2.020   0.049   2.315
 1022SOL  MW    4088   2.022   0.137   2.313
 1023SOL  OW    4089   1.993   0.128   2.634
 1023SOL  HW1   4090   1.932   0.120   2.708
 1023SOL  HW2   4091   2.071   0.080   2.661
 1023SOL  MW    4092   1.995   0.121   2.647
 1024SOL  OW    4093   1.996   0.115   2.960
 1024SOL  HW1   4094   2.009   0.117   3.055
 1024SOL  HW2   4095   2.060   0.178   2.926
 1024SOL  MW    4096   2.006   0.123   2.968
 1025SOL  OW    4097   2.025   0.172   3.260
 1025SOL  HW1   4098   2.051   0.192   3.171
 1025SOL  HW2   4099   1.946   0.120   3.251
 1025SOL  MW    4100   2.018   0.168   3.248
 1026SOL  OW    4101   2.033   0.141   3.547
 1026SOL  HW1   4102   2.089   0.085   3.601
 1026SOL  HW2   4103   1.973   0.182   3.610
 1026SOL  MW    4104   2.032   0.139   3.562
 1027SOL  OW    4105   2.009   0.135   3.824
 1027SOL  HW1   4106   2.027   0.050   3.784
 1027SOL  HW2   4107   1.915   0.148   3.812
 1027SOL  MW    4108   1.999   0.126   3.817
 1028SOL  OW    4109   1.969   0.474   0.176
 1028SOL  HW1   4110   1.889   0.451   0.224
 1028SOL  HW2   4111   1.998   0.392   0.137
 1028SOL  MW    4112   1.963   0.461   0.177
 1029SOL  OW    4113   2.021   0.447   0.438
 1029SOL  HW1   4114   2.048   0.378   0.378
 1029SOL  HW2   4115   2.067   0.427   0.519
 1029SOL  MW    4116   2.030   0.435   0.441
 1030SOL  OW    4117   1.996   0.465   0.803
 1030SOL  HW1   4118   2.081   0.469   0.759
 1030SOL  HW2   4119   1.977   0.556   0.825
 1030SOL  MW    4120   2.005   0.477   0.800
 1031SOL  OW    4121   2.030   0.495   1.105
 1031SOL  HW1   4122   2.004   0.535   1.188
 1031SOL  HW2   4123   2.064   0.409   1.129
 1031SOL  MW    4124   2.031   0.489   1.119
 1032SOL  OW    4125   2.037   0.459   1.348
 1032SOL  HW1   4126   2.028   0.527   1.282
 1032SOL  HW2   4127   2.059   0.380   1.299
 1032SOL  MW    4128   2.039   0.457   1.334
 1033SOL  OW    4129   1.967   0.453   1.673
 1033SOL  HW1   4130   1.931   0.365   1.662
 1033SOL  HW2   4131   1.950   0.496   1.589
 1033SOL  MW    4132   1.960   0.447   1.661
 1034SOL  OW    4133   1.974   0.498   1.976
 1034SOL  HW1   4134   1.979   0.494   1.880
 1034SOL  HW2   4135   1.997   0.588   1.997
 1034SOL  MW    4136   1.977   0.509   1.966
 1035SOL  OW    4137   2.037   0.482   2.319
 1035SOL  HW1   4138   2.003   0.413   2.375
 1035SOL  HW2   4139   2.112   0.443   2.274
 1035SOL  MW    4140   2.042   0.468   2.320
 1036SOL  OW    4141   2.014   0.448   2.627
 1036SOL  HW1   4142   1.987   0.523   2.680
 1036SOL  HW2   4143   2.067   0.486   2.557
 1036SOL  MW    4144   2.017   0.463   2.625
 1037SOL  OW    4145   1.975   0.497   2.907
 1037SOL  HW1   4146   2.057   0.539   2.881
 1037SOL  HW2   4147   1.950   0.444   2.832
 1037SOL  MW    4148   1.982   0.495   2.894
 1038SOL  OW    4149   1.980   0.478   3.243
 1038SOL  HW1   4150   1.943   0.399   3.281
 1038SOL  HW2   4151   2.004   0.454   3.154
 1038SOL  MW    4152   1.979   0.465   3.237
 1039SOL  OW    4153   1.996   0.472   3.511
 1039SOL  HW1   4154   2.092   0.473   3.511
 1039SOL  HW2   4155   1.973   0.401   3.571
 1039SOL  MW    4156   2.005   0.463   3.519
 1040SOL  OW    4157   2.014   0.443   3.828
 1040SOL  HW1   4158   1.951   0.397   3.773
 1040SOL  HW2   4159   1.967   0.461   3.909
 1040SOL  MW    4160   2.000   0.440   3.831
 1041SOL  OW    4161   1.973   0.756   0.140
 1041SOL  HW1   4162   2.007   0.845   0.132
 1041SOL  HW2   4163   1.985   0.734   0.233
 1041SOL  MW    4164   1.979   0.764   0.151
 1042SOL  OW    4165   1.996   0.744   0.437
 1042SOL  HW1   4166   1.990   0.684   0.511
 1042SOL  HW2   4167   2.004   0.688   0.360
 1042SOL  MW    4168   1.996   0.729   0.437
 1043SOL  OW    4169   2.003   0.740   0.784
 1043SOL  HW1   4170   2.089   0.745   0.828
 1043SOL  HW2   4171   1.962   0.662   0.822
 1043SOL  MW    4172   2.009   0.730   0.795
 1044SOL  OW    4173   2.036   0.763   1.109
 1044SOL  HW1   4174   2.041   0.839   1.168
 1044SOL  HW2   4175   2.005   0.691   1.164
 1044SOL  MW    4176   2.032   0.764   1.124
 1045SOL  OW    4177   1.968   0.733   1.402
 1045SOL  HW1   4178   2.003   0.801   1.345
 1045SOL  HW2   4179   2.016   0.743   1.484
 1045SOL  MW    4180   1.978   0.743   1.405
 1046SOL  OW    4181   2.021   0.797   1.657
 1046SOL  HW1   4182   2.044   0.736   1.587
 1046SOL  HW2   4183   2.099   0.851   1.669
 1046SOL  MW    4184   2.034   0.796   1.649
 1047SOL  OW    4185   2.022   0.759   1.984
 1047SOL  HW1   4186   1.944   0.710   2.009
 1047SOL  HW2   4187   2.061   0.709   1.912
 1047SOL  MW    4188   2.017   0.747   1.978
 1048SOL  OW    4189   1.974   0.809   2.273
 1048SOL  HW1   4190   2.038   0.739   2.262
 1048SOL  HW2   4191   1.906   0.790   2.208
 1048SOL  MW    4192   1.973   0.797   2.263
 1049SOL  OW    4193   2.026   0.780   2.634
 1049SOL  HW1   4194   1.955   0.834   2.600
 1049SOL  HW2   4195   2.078   0.758   2.557
 1049SOL  MW    4196   2.024   0.784   2.620
 1050SOL  OW    4197   2.017   0.798   2.898
 1050SOL  HW1   4198   2.032   0.891   2.912
 1050SOL  HW2   4199   1.925   0.784   2.921
 1050SOL  MW    4200   2.007   0.808   2.903
 1051SOL  OW    4201   1.960   0.777   3.219
 1051SOL  HW1   4202   2.040   0.796   3.169
 1051SOL  HW2   4203   1.958   0.845   3.287
 1051SOL  MW    4204   1.970   0.788   3.221
 1052SOL  OW    4205   1.970   0.744   3.525
 1052SOL  HW1   4206   1.876   0.752   3.507
 1052SOL  HW2   4207   1.974   0.705   3.612
 1052SOL  MW    4208   1.958   0.740   3.534
 1053SOL  OW    4209   1.966   0.734   3.879
 1053SOL  HW1   4210   2.002   0.698   3.960
 1053SOL  HW2   4211   1.876   0.701   3.878
 1053SOL  MW    4212   1.959   0.725   3.890
 1054SOL  OW    4213   1.985   1.116   0.191
 1054SOL  HW1   4214   1.958   1.141   0.279
 1054SOL  HW2   4215   1.992   1.020   0.194
 1054SOL  MW    4216   1.982   1.107   0.203
 1055SOL  OW    4217   1.971   1.094   0.470
 1055SOL  HW1   4218   1.908   1.034   0.510
 1055SOL  HW2   4219   2.049   1.040   0.454
 1055SOL  MW    4220   1.973   1.080   0.473
 1056SOL  OW    4221   2.015   1.045   0.744
 1056SOL  HW1   4222   1.958   0.978   0.782
 1056SOL  HW2   4223   1.955   1.112   0.712
 1056SOL  MW    4224   2.000   1.045   0.745
 1057SOL  OW    4225   1.966   1.085   1.116
 1057SOL  HW1   4226   1.993   1.158   1.172
 1057SOL  HW2   4227   2.015   1.010   1.149
 1057SOL  MW    4228   1.976   1.085   1.127
 1058SOL  OW    4229   2.014   1.094   1.423
 1058SOL  HW1   4230   1.958   1.171   1.419
 1058SOL  HW2   4231   1.964   1.025   1.379
 1058SOL  MW    4232   2.000   1.095   1.417
 1059SOL  OW    4233   2.014   1.040   1.722
 1059SOL  HW1   4234   2.053   1.068   1.639
 1059SOL  HW2   4235   1.956   1.112   1.746
 1059SOL  MW    4236   2.012   1.053   1.714
 1060SOL  OW    4237   1.989   1.037   2.001
 1060SOL  HW1   4238   1.935   1.114   1.982
 1060SOL  HW2   4239   1.982   0.983   1.922
 1060SOL  MW    4240   1.981   1.040   1.988
 1061SOL  OW    4241   2.035   1.058   2.307
 1061SOL  HW1   4242   1.976   1.132   2.314
 1061SOL  HW2   4243   1.989   0.986   2.352
 1061SOL  MW    4244   2.022   1.058   2.314
 1062SOL  OW    4245   1.974   1.042   2.582
 1062SOL  HW1   4246   1.908   0.973   2.568
 1062SOL  HW2   4247   1.968   1.097   2.504
 1062SOL  MW    4248   1.965   1.040   2.570
 1063SOL  OW    4249   2.018   1.106   2.895
 1063SOL  HW1   4250   1.934   1.126   2.853
 1063SOL  HW2   4251   2.012   1.146   2.981
 1063SOL  MW    4252   2.007   1.114   2.900
 1064SOL  OW    4253   1.983   1.053   3.193
 1064SOL  HW1   4254   2.021   0.991   3.131
 1064SOL  HW2   4255   2.051   1.065   3.259
 1064SOL  MW    4256   1.997   1.046   3.193
 1065SOL  OW    4257   2.004   1.093   3.550
 1065SOL  HW1   4258   2.056   1.035   3.494
 1065SOL  HW2   4259   2.068   1.132   3.610
 1065SOL  MW    4260   2.019   1.090   3.551
 1066SOL  OW    4261   1.991   1.081   3.814
 1066SOL  HW1   4262   2.068   1.080   3.871
 1066SOL  HW2   4263   2.025   1.057   3.727
 1066SOL  MW    4264   2.005   1.078   3.810
 1067SOL  OW    4265   1.972   1.419   0.175
 1067SOL  HW1   4266   1.973   1.324   0.188
 1067SOL  HW2   4267   1.915   1.432   0.100
 1067SOL  MW    4268   1.965   1.409   0.167
 1068SOL  OW    4269   2.034   1.418   0.473
 1068SOL  HW1   4270   2.080   1.337   0.449
 1068SOL  HW2   4271   1.999   1.451   0.391
 1068SOL  MW    4272   2.035   1.412   0.460
 1069SOL  OW    4273   2.034   1.378   0.730
 1069SOL  HW1   4274   1.993   1.456   0.692
 1069SOL  HW2   4275   2.056   1.324   0.654
 1069SOL  MW    4276   2.032   1.381   0.715
 1070SOL  OW    4277   1.965   1.353   1.045
 1070SOL  HW1   4278   2.055   1.321   1.056
 1070SOL  HW2   4279   1.917   1.278   1.011
 1070SOL  MW    4280   1.970   1.340   1.042
 1071SOL  OW    4281   1.988   1.401   1.408
 1071SOL  HW1   4282   1.943   1.471   1.360
 1071SOL  HW2   4283   1.965   1.415   1.500
 1071SOL  MW    4284   1.979   1.412   1.414
 1072SOL  OW    4285   2.007   1.356   1.712
 1072SOL  HW1   4286   2.093   1.314   1.708
 1072SOL  HW2   4287   2.000   1.386   1.803
 1072SOL  MW    4288   2.017   1.355   1.723
 1073SOL  OW    4289   1.988   1.346   1.982
 1073SOL  HW1   4290   2.013   1.302   1.901
 1073SOL  HW2   4291   2.004   1.280   2.050
 1073SOL  MW    4292   1.994   1.332   1.981
 1074SOL  OW    4293   1.986   1.367   2.333
 1074SOL  HW1   4294   2.047   1.335   2.265
 1074SOL  HW2   4295   2.032   1.441   2.372
 1074SOL  MW    4296   2.000   1.372   2.329
 1075SOL  OW    4297   2.021   1.400   2.587
 1075SOL  HW1   4298   2.039   1.451   2.665
 1075SOL  HW2   4299   2.017   1.310   2.617
 1075SOL  MW    4300   2.023   1.395   2.601
 1076SOL  OW    4301   2.025   1.399   2.899
 1076SOL  HW1   4302   1.973   1.337   2.847
 1076SOL  HW2   4303   2.079   1.444   2.834
 1076SOL  MW    4304   2.025   1.397   2.884
 1077SOL  OW    4305   2.012   1.383   3.226
 1077SOL  HW1   4306   2.013   1.288   3.233
 1077SOL  HW2   4307   1.951   1.411   3.294
 1077SOL  MW    4308   2.004   1.375   3.236
 1078SOL  OW    4309   1.969   1.386   3.506
 1078SOL  HW1   4310   2.011   1.460   3.550
 1078SOL  HW2   4311   1.902   1.426   3.451
 1078SOL  MW    4312   1.966   1.401   3.505
 1079SOL  OW    4313   1.973   1.355   3.882
 1079SOL  HW1   4314   1.910   1.303   3.932
 1079SOL  HW2   4315   2.056   1.343   3.929
 1079SOL  MW    4316   1.976   1.347   3.895
 1080SOL  OW    4317   1.983   1.681   0.140
 1080SOL  HW1   4318   1.980   1.745   0.069
 1080SOL  HW2   4319   2.018   1.729   0.214
 1080SOL  MW    4320   1.987   1.695   0.140
 1081SOL  OW    4321   2.032   1.697   0.495
 1081SOL  HW1   4322   2.112   1.666   0.453
 1081SOL  HW2   4323   2.057   1.712   0.586
 1081SOL  MW    4324   2.045   1.695   0.501
 1082SOL  OW    4325   1.984   1.661   0.774
 1082SOL  HW1   4326   1.944   1.587   0.728
 1082SOL  HW2   4327   2.007   1.723   0.704
 1082SOL  MW    4328   1.982   1.660   0.759
 1083SOL  OW    4329   1.988   1.716   1.107
 1083SOL  HW1   4330   1.925   1.782   1.137
 1083SOL  HW2   4331   2.066   1.733   1.160
 1083SOL  MW    4332   1.990   1.727   1.118
 1084SOL  OW    4333   1.998   1.730   1.389
 1084SOL  HW1   4334   1.923   1.786   1.412
 1084SOL  HW2   4335   2.018   1.754   1.298
 1084SOL  MW    4336   1.991   1.740   1.380
 1085SOL  OW    4337   1.982   1.691   1.655
 1085SOL  HW1   4338   2.002   1.768   1.601
 1085SOL  HW2   4339   1.888   1.676   1.642
 1085SOL  MW    4340   1.972   1.699   1.647
 1086SOL  OW    4341   2.024   1.660   1.985
 1086SOL  HW1   4342   1.937   1.673   2.023
 1086SOL  HW2   4343   2.013   1.590   1.921
 1086SOL  MW    4344   2.012   1.653   1.981
 1087SOL  OW    4345   2.005   1.656   2.274
 1087SOL  HW1   4346   1.985   1.635   2.183
 1087SOL  HW2   4347   2.048   1.577   2.308
 1087SOL  MW    4348   2.008   1.643   2.267
 1088SOL  OW    4349   2.016   1.658   2.614
 1088SOL  HW1   4350   2.035   1.752   2.608
 1088SOL  HW2   4351   2.062   1.619   2.539
 1088SOL  MW    4352   2.024   1.665   2.603
 1089SOL  OW    4353   1.987   1.671   2.898
 1089SOL  HW1   4354   1.980   1.579   2.870
 1089SOL  HW2   4355   2.057   1.670   2.963
 1089SOL  MW    4356   1.995   1.659   2.903
 1090SOL  OW    4357   2.021   1.728   3.202
 1090SOL  HW1   4358   1.971   1.782   3.264
 1090SOL  HW2   4359   2.057   1.792   3.140
 1090SOL  MW    4360   2.019   1.743   3.202
 1091SOL  OW    4361   2.037   1.700   3.550
 1091SOL  HW1   4362   1.969   1.698   3.482
 1091SOL  HW2   4363   2.104   1.758   3.514
 1091SOL  MW    4364   2.037   1.707   3.537
 1092SOL  OW    4365   2.017   1.709   3.872
 1092SOL  HW1   4366   2.108   1.681   3.863
 1092SOL  HW2   4367   1.967   1.628   3.863
 1092SOL  MW    4368   2.022   1.695   3.869
 1093SOL  OW    4369   1.999   2.003   0.140
 1093SOL  HW1   4370   1.994   1.932   0.075
 1093SOL  HW2   4371   1.919   2.053   0.126
 1093SOL  MW    4372   1.988   2.000   0.130
 1094SOL  OW    4373   1.968   2.013   0.424
 1094SOL  HW1   4374   1.951   1.920   0.413
 1094SOL  HW2   4375   2.010   2.020   0.510
 1094SOL  MW    4376   1.972   2.002   0.434
 1095SOL  OW    4377   1.982   1.968   0.744
 1095SOL  HW1   4378   2.064   1.920   0.757
 1095SOL  HW2   4379   1.994   2.015   0.662
 1095SOL  MW    4380   1.994   1.968   0.736
 1096SOL  OW    4381   2.011   2.010   1.071
 1096SOL  HW1   4382   2.035   1.984   1.160
 1096SOL  HW2   4383   1.916   1.998   1.066
 1096SOL  MW    4384   2.002   2.005   1.081
 1097SOL  OW    4385   1.967   1.995   1.373
 1097SOL  HW1   4386   1.996   2.085   1.387
 1097SOL  HW2   4387   2.018   1.965   1.297
 1097SOL  MW    4388   1.977   2.002   1.365
 1098SOL  OW    4389   2.018   2.006   1.692
 1098SOL  HW1   4390   1.948   2.045   1.745
 1098SOL  HW2   4391   1.999   2.035   1.602
 1098SOL  MW    4392   2.006   2.015   1.687
 1099SOL  OW    4393   1.999   2.037   2.021
 1099SOL  HW1   4394   1.941   1.970   1.985
 1099SOL  HW2   4395   1.981   2.037   2.115
 1099SOL  MW    4396   1.989   2.029   2.028
 1100SOL  OW    4397   2.000   1.998   2.270
 1100SOL  HW1   4398   1.949   1.923   2.299
 1100SOL  HW2   4399   2.066   2.011   2.338
 1100SOL  MW    4400   2.002   1.990   2.282
 1101SOL  OW    4401   2.035   1.986   2.596
 1101SOL  HW1   4402   1.976   1.952   2.529
 1101SOL  HW2   4403   2.095   2.043   2.548
 1101SOL  MW    4404   2.035   1.989   2.581
 1102SOL  OW    4405   2.040   2.017   2.887
 1102SOL  HW1   4406   2.057   2.111   2.877
 1102SOL  HW2   4407   1.998   2.010   2.973
 1102SOL  MW    4408   2.037   2.028   2.897
 1103SOL  OW    4409   1.965   1.962   3.239
 1103SOL  HW1   4410   1.919   1.879   3.228
 1103SOL  HW2   4411   1.907   2.014   3.295
 1103SOL  MW    4412   1.952   1.958   3.245
 1104SOL  OW    4413   1.966   2.035   3.573
 1104SOL  HW1   4414   1.966   2.017   3.479
 1104SOL  HW2   4415   2.058   2.038   3.598
 1104SOL  MW    4416   1.978   2.033   3.564
 1105SOL  OW    4417   2.004   2.009   3.830
 1105SOL  HW1   4418   2.023   2.081   3.769
 1105SOL  HW2   4419   1.984   2.052   3.913
 1105SOL  MW    4420   2.004   2.024   3.832
 1106SOL  OW    4421   1.965   2.327   0.122
 1106SOL  HW1   4422   1.993   2.344   0.212
 1106SOL  HW2   4423   1.909   2.401   0.099
 1106SOL  MW    4424   1.962   2.338   0.131
 1107SOL  OW    4425   1.967   2.293   0.423
 1107SOL  HW1   4426   1.941   2.337   0.342
 1107SOL  HW2   4427   1.936   2.203   0.412
 1107SOL  MW    4428   1.960   2.287   0.411
 1108SOL  OW    4429   1.995   2.324   0.793
 1108SOL  HW1   4430   1.914   2.282   0.823
 1108SOL  HW2   4431   2.011   2.288   0.706
 1108SOL  MW    4432   1.986   2.314   0.786
 1109SOL  OW    4433   2.008   2.335   1.069
 1109SOL  HW1   4434   2.080   2.293   1.116
 1109SOL  HW2   4435   2.046   2.418   1.038
 1109SOL  MW    4436   2.022   2.341   1.071
 1110SOL  OW    4437   2.028   2.308   1.362
 1110SOL  HW1   4438   2.032   2.337   1.454
 1110SOL  HW2   4439   2.070   2.222   1.363
 1110SOL  MW    4440   2.034   2.301   1.374
 1111SOL  OW    4441   2.036   2.290   1.654
 1111SOL  HW1   4442   1.953   2.327   1.684
 1111SOL  HW2   4443   2.094   2.365   1.647
 1111SOL  MW    4444   2.032   2.304   1.657
 1112SOL  OW    4445   1.979   2.297   1.988
 1112SOL  HW1   4446   1.993   2.208   2.022
 1112SOL  HW2   4447   1.988   2.354   2.065
 1112SOL  MW    4448   1.982   2.293   2.002
 1113SOL  OW    4449   2.002   2.338   2.291
 1113SOL  HW1   4450   1.938   2.274   2.322
 1113SOL  HW2   4451   2.085   2.310   2.329
 1113SOL  MW    4452   2.005   2.326   2.300
 1114SOL  OW    4453   2.002   2.295   2.641
 1114SOL  HW1   4454   1.959   2.212   2.663
 1114SOL  HW2   4455   2.094   2.281   2.662
 1114SOL  MW    4456   2.008   2.282   2.647
 1115SOL  OW    4457   1.973   2.276   2.923
 1115SOL  HW1   4458   1.951   2.262   3.016
 1115SOL  HW2   4459   2.068   2.268   2.920
 1115SOL  MW    4460   1.982   2.273   2.935
 1116SOL  OW    4461   2.014   2.331   3.238
 1116SOL  HW1   4462   2.030   2.343   3.144
 1116SOL  HW2   4463   2.100   2.342   3.278
 1116SOL  MW    4464   2.027   2.334   3.231
 1117SOL  OW    4465   2.022   2.299   3.501
 1117SOL  HW1   4466   2.044   2.283   3.593
 1117SOL  HW2   4467   1.933   2.334   3.504
 1117SOL  MW    4468   2.013   2.302   3.513
 1118SOL  OW    4469   1.969   2.271   3.832
 1118SOL  HW1   4470   1.917   2.287   3.911
 1118SOL  HW2   4471   1.909   2.229   3.771
 1118SOL  MW    4472   1.955   2.267   3.835
 1119SOL  OW    4473   2.000   2.604   0.159
 1119SOL  HW1   4474   2.003   2.608   0.254
 1119SOL  HW2   4475   2.016   2.512   0.138
 1119SOL  MW    4476   2.002   2.593   0.168
 1120SOL  OW    4477   1.998   2.630   0.475
 1120SOL  HW1   4478   1.904   2.613   0.483
 1120SOL  HW2   4479   2.007   2.725   0.479
 1120SOL  MW    4480   1.987   2.640   0.476
 1121SOL  OW    4481   1.985   2.603   0.776
 1121SOL  HW1   4482   1.909   2.564   0.818
 1121SOL  HW2   4483   2.059   2.551   0.808
 1121SOL  MW    4484   1.985   2.591   0.785
 1122SOL  OW    4485   2.008   2.601   1.063
 1122SOL  HW1   4486   1.959   2.626   0.985
 1122SOL  HW2   4487   1.950   2.625   1.136
 1122SOL  MW    4488   1.994   2.607   1.063
 1123SOL  OW    4489   2.016   2.627   1.355
 1123SOL  HW1   4490   2.039   2.555   1.414
 1123SOL  HW2   4491   2.080   2.622   1.284
 1123SOL  MW    4492   2.027   2.617   1.354
 1124SOL  OW    4493   1.995   2.647   1.655
 1124SOL  HW1   4494   1.966   2.721   1.708
 1124SOL  HW2   4495   2.054   2.686   1.590
 1124SOL  MW    4496   1.999   2.661   1.654
 1125SOL  OW    4497   2.028   2.588   2.001
 1125SOL  HW1   4498   2.100   2.558   1.945
 1125SOL  HW2   4499   1.952   2.590   1.943
 1125SOL  MW    4500   2.028   2.585   1.986
 1126SOL  OW    4501   1.994   2.576   2.341
 1126SOL  HW1   4502   2.000   2.628   2.421
 1126SOL  HW2   4503   2.069   2.604   2.289
 1126SOL  MW    4504   2.004   2.586   2.345
 1127SOL  OW    4505   1.996   2.652   2.598
 1127SOL  HW1   4506   1.928   2.672   2.662
 1127SOL  HW2   4507   2.043   2.734   2.587
 1127SOL  MW    4508   1.994   2.665   2.605
 1128SOL  OW    4509   2.029   2.649   2.928
 1128SOL  HW1   4510   1.979   2.618   2.853
 1128SOL  HW2   4511   2.069   2.570   2.964
 1128SOL  MW    4512   2.028   2.635   2.923
 1129SOL  OW    4513   1.976   2.630   3.235
 1129SOL  HW1   4514   2.059   2.595   3.201
 1129SOL  HW2   4515   1.962   2.584   3.317
 1129SOL  MW    4516   1.985   2.620   3.241
 1130SOL  OW    4517   2.036   2.611   3.520
 1130SOL  HW1   4518   2.082   2.527   3.525
 1130SOL  HW2   4519   2.037   2.633   3.427
 1130SOL  MW    4520   2.042   2.603   3.509
 1131SOL  OW    4521   1.971   2.631   3.884
 1131SOL  HW1   4522   1.914   2.570   3.931
 1131SOL  HW2   4523   2.030   2.665   3.951
 1131SOL  MW    4524   1.971   2.628   3.899
 1132SOL  OW    4525   1.962   2.942   0.188
 1132SOL  HW1   4526   1.881   2.984   0.216
 1132SOL  HW2   4527   2.015   2.937   0.268
 1132SOL  MW    4528   1.959   2.947   0.202
 1133SOL  OW    4529   1.966   2.892   0.477
 1133SOL  HW1   4530   1.881   2.897   0.520
 1133SOL  HW2   4531   1.949   2.843   0.396
 1133SOL  MW    4532   1.953   2.886   0.472
 1134SOL  OW    4533   2.012   2.889   0.796
 1134SOL  HW1   4534   2.095   2.858   0.831
 1134SOL  HW2   4535   2.036   2.949   0.725
 1134SOL  MW    4536   2.026   2.892   0.791
 1135SOL  OW    4537   2.002   2.956   1.107
 1135SOL  HW1   4538   2.005   2.860   1.114
 1135SOL  HW2   4539   2.085   2.980   1.066
 1135SOL  MW    4540   2.013   2.946   1.103
 1136SOL  OW    4541   2.025   2.924   1.365
 1136SOL  HW1   4542   2.119   2.904   1.366
 1136SOL  HW2   4543   2.013   2.976   1.285
 1136SOL  MW    4544   2.035   2.928   1.355
 1137SOL  OW    4545   2.000   2.891   1.705
 1137SOL  HW1   4546   2.029   2.973   1.665
 1137SOL  HW2   4547   1.985   2.913   1.797
 1137SOL  MW    4548   2.002   2.905   1.712
 1138SOL  OW    4549   1.971   2.924   1.964
 1138SOL  HW1   4550   2.048   2.874   1.937
 1138SOL  HW2   4551   1.936   2.961   1.883
 1138SOL  MW    4552   1.976   2.922   1.950
 1139SOL  OW    4553   1.984   2.902   2.317
 1139SOL  HW1   4554   2.071   2.934   2.296
 1139SOL  HW2   4555   1.992   2.806   2.315
 1139SOL  MW    4556   1.996   2.894   2.314
 1140SOL  OW    4557   2.023   2.888   2.643
 1140SOL  HW1   4558   2.043   2.865   2.552
 1140SOL  HW2   4559   2.102   2.864   2.692
 1140SOL  MW    4560   2.036   2.882   2.638
 1141SOL  OW    4561   2.029   2.910   2.936
 1141SOL  HW1   4562   1.984   2.991   2.909
 1141SOL  HW2   4563   2.071   2.878   2.856
 1141SOL  MW    4564   2.029   2.917   2.922
 1142SOL  OW    4565   1.992   2.895   3.233
 1142SOL  HW1   4566   1.950   2.924   3.152
 1142SOL  HW2   4567   2.006   2.801   3.221
 1142SOL  MW    4568   1.989   2.887   3.221
 1143SOL  OW    4569   1.967   2.953   3.572
 1143SOL  HW1   4570   1.948   2.960   3.479
 1143SOL  HW2   4571   1.886   2.919   3.611
 1143SOL  MW    4572   1.954   2.950   3.565
 1144SOL  OW    4573   2.026   2.928   3.851
 1144SOL  HW1   4574   2.085   2.863   3.889
 1144SOL  HW2   4575   2.059   2.942   3.762
 1144SOL  MW    4576   2.038   2.922   3.844
 1145SOL  OW    4577   2.039   3.211   0.120
 1145SOL  HW1   4578   2.089   3.130   0.132
 1145SOL  HW2   4579   1.986   3.195   0.041
 1145SOL  MW    4580   2.038   3.198   0.111
 1146SOL  OW    4581   2.005   3.217   0.447
 1146SOL  HW1   4582   2.050   3.185   0.369
 1146SOL  HW2   4583   1.921   3.172   0.446
 1146SOL  MW    4584   2.000   3.207   0.437
 1147SOL  OW    4585   1.961   3.238   0.750
 1147SOL  HW1   4586   1.904   3.279   0.685
 1147SOL  HW2   4587   1.923   3.266   0.834
 1147SOL  MW    4588   1.949   3.247   0.753
 1148SOL  OW    4589   1.975   3.194   1.066
 1148SOL  HW1   4590   1.928   3.125   1.020
 1148SOL  HW2   4591   1.950   3.274   1.021
 1148SOL  MW    4592   1.966   3.195   1.054
 1149SOL  OW    4593   2.030   3.218   1.399
 1149SOL  HW1   4594   1.952   3.165   1.413
 1149SOL  HW2   4595   2.083   3.204   1.477
 1149SOL  MW    4596   2.027   3.209   1.411
 1150SOL  OW    4597   2.021   3.217   1.718
 1150SOL  HW1   4598   1.938   3.264   1.729
 1150SOL  HW2   4599   2.087   3.286   1.715
 1150SOL  MW    4600   2.018   3.232   1.719
 1151SOL  OW    4601   2.015   3.236   1.960
 1151SOL  HW1   4602   2.057   3.308   1.913
 1151SOL  HW2   4603   1.974   3.277   2.036
 1151SOL  MW    4604   2.015   3.250   1.964
 1152SOL  OW    4605   1.963   3.270   2.330
 1152SOL  HW1   4606   2.035   3.254   2.270
 1152SOL  HW2   4607   1.992   3.344   2.384
 1152SOL  MW    4608   1.976   3.277   2.329
 1153SOL  OW    4609   2.035   3.263   2.577
 1153SOL  HW1   4610   2.093   3.335   2.603
 1153SOL  HW2   4611   1.997   3.232   2.659
 1153SOL  MW    4612   2.037   3.268   2.591
 1154SOL  OW    4613   2.023   3.227   2.946
 1154SOL  HW1   4614   1.995   3.276   2.869
 1154SOL  HW2   4615   2.052   3.142   2.912
 1154SOL  MW    4616   2.023   3.222   2.932
 1155SOL  OW    4617   1.961   3.214   3.251
 1155SOL  HW1   4618   1.929   3.230   3.340
 1155SOL  HW2   4619   2.037   3.271   3.241
 1155SOL  MW    4620   1.966   3.223   3.261
 1156SOL  OW    4621   2.023   3.240   3.523
 1156SOL  HW1   4622   2.020   3.200   3.436
 1156SOL  HW2   4623   2.036   3.167   3.583
 1156SOL  MW    4624   2.025   3.226   3.519
 1157SOL  OW    4625   1.985   3.268   3.841
 1157SOL  HW1   4626   1.905   3.250   3.891
 1157SOL  HW2   4627   2.051   3.212   3.881
 1157SOL  MW    4628   1.983   3.259   3.853
 1158SOL  OW    4629   1.996   3.543   0.147
 1158SOL  HW1   4630   1.968   3.605   0.079
 1158SOL  HW2   4631   1.968   3.457   0.113
 1158SOL  MW    4632   1.989   3.540   0.134
 1159SOL  OW    4633   2.004   3.533   0.488
 1159SOL  HW1   4634   2.045   3.452   0.457
 1159SOL  HW2   4635   1.911   3.512   0.494
 1159SOL  MW    4636   1.997   3.520   0.485
 1160SOL  OW    4637   2.033   3.573   0.774
 1160SOL  HW1   4638   2.045   3.495   0.721
 1160SOL  HW2   4639   2.091   3.638   0.735
 1160SOL  MW    4640   2.042   3.571   0.763
 1161SOL  OW    4641   1.995   3.555   1.104
 1161SOL  HW1   4642   2.000   3.519   1.015
 1161SOL  HW2   4643   1.931   3.500   1.149
 1161SOL  MW    4644   1.988   3.543   1.098
 1162SOL  OW    4645   2.005   3.554   1.405
 1162SOL  HW1   4646   2.027   3.461   1.410
 1162SOL  HW2   4647   2.073   3.598   1.456
 1162SOL  MW    4648   2.016   3.548   1.412
 1163SOL  OW    4649   2.014   3.558   1.669
 1163SOL  HW1   4650   2.082   3.504   1.628
 1163SOL  HW2   4651   2.040   3.564   1.761
 1163SOL  MW    4652   2.026   3.552   1.676
 1164SOL  OW    4653   2.000   3.546   1.960
 1164SOL  HW1   4654   1.941   3.620   1.975
 1164SOL  HW2   4655   2.049   3.569   1.881
 1164SOL  MW    4656   1.999   3.558   1.952
 1165SOL  OW    4657   2.028   3.547   2.278
 1165SOL  HW1   4658   2.034   3.465   2.229
 1165SOL  HW2   4659   1.993   3.522   2.363
 1165SOL  MW    4660   2.025   3.534   2.283
 1166SOL  OW    4661   2.025   3.556   2.636
 1166SOL  HW1   4662   2.011   3.519   2.723
 1166SOL  HW2   4663   1.956   3.622   2.626
 1166SOL  MW    4664   2.015   3.560   2.646
 1167SOL  OW    4665   1.991   3.567   2.916
 1167SOL  HW1   4666   1.932   3.608   2.979
 1167SOL  HW2   4667   2.053   3.636   2.893
 1167SOL  MW    4668   1.992   3.581   2.921
 1168SOL  OW    4669   2.006   3.499   3.242
 1168SOL  HW1   4670   2.094   3.498   3.204
 1168SOL  HW2   4671   2.009   3.433   3.312
 1168SOL  MW    4672   2.017   3.490   3.246
 1169SOL  OW    4673   2.017   3.544   3.538
 1169SOL  HW1   4674   1.970   3.486   3.479
 1169SOL  HW2   4675   2.028   3.625   3.489
 1169SOL  MW    4676   2.013   3.547   3.524
 1170SOL  OW    4677   2.025   3.553   3.828
 1170SOL  HW1   4678   2.106   3.583   3.787
 1170SOL  HW2   4679   2.020   3.460   3.807
 1170SOL  MW    4680   2.035   3.545   3.820
 1171SOL  OW    4681   2.037   3.863   0.193
 1171SOL  HW1   4682   1.950   3.825   0.209
 1171SOL  HW2   4683   2.066   3.893   0.279
 1171SOL  MW    4684   2.029   3.862   0.206
 1172SOL  OW    4685   2.038   3.880   0.482
 1172SOL  HW1   4686   1.991   3.956   0.517
 1172SOL  HW2   4687   1.998   3.865   0.396
 1172SOL  MW    4688   2.027   3.888   0.476
 1173SOL  OW    4689   2.009   3.820   0.773
 1173SOL  HW1   4690   1.964   3.837   0.855
 1173SOL  HW2   4691   2.027   3.726   0.774
 1173SOL  MW    4692   2.005   3.810   0.784
 1174SOL  OW    4693   2.021   3.848   1.106
 1174SOL  HW1   4694   2.103   3.879   1.144
 1174SOL  HW2   4695   2.016   3.891   1.021
 1174SOL  MW    4696   2.031   3.857   1.100
 1175SOL  OW    4697   1.969   3.837   1.385
 1175SOL  HW1   4698   1.893   3.864   1.334
 1175SOL  HW2   4699   2.026   3.794   1.322
 1175SOL  MW    4700   1.966   3.835   1.370
 1176SOL  OW    4701   1.995   3.815   1.665
 1176SOL  HW1   4702   1.907   3.787   1.693
 1176SOL  HW2   4703   2.041   3.733   1.646
 1176SOL  MW    4704   1.989   3.801   1.666
 1177SOL  OW    4705   2.027   3.845   1.964
 1177SOL  HW1   4706   2.110   3.892   1.953
 1177SOL  HW2   4707   2.001   3.821   1.875
 1177SOL  MW    4708   2.034   3.848   1.951
 1178SOL  OW    4709   1.961   3.844   2.281
 1178SOL  HW1   4710   2.041   3.791   2.280
 1178SOL  HW2   4711   1.923   3.831   2.194
 1178SOL  MW    4712   1.967   3.836   2.270
 1179SOL  OW    4713   2.016   3.870   2.594
 1179SOL  HW1   4714   1.983   3.935   2.531
 1179SOL  HW2   4715   2.073   3.813   2.541
 1179SOL  MW    4716   2.019   3.871   2.579
 1180SOL  OW    4717   2.007   3.819   2.907
 1180SOL  HW1   4718   2.078   3.825   2.843
 1180SOL  HW2   4719   2.017   3.731   2.944
 1180SOL  MW    4720   2.018   3.808   2.904
 1181SOL  OW    4721   2.031   3.850   3.262
 1181SOL  HW1   4722   2.099   3.832   3.197
 1181SOL  HW2   4723   2.035   3.776   3.322
 1181SOL  MW    4724   2.040   3.838   3.261
 1182SOL  OW    4725   1.978   3.833   3.536
 1182SOL  HW1   4726   1.983   3.839   3.441
 1182SOL  HW2   4727   1.940   3.916   3.564
 1182SOL  MW    4728   1.974   3.844   3.527
 1183SOL  OW    4729   1.998   3.886   3.815
 1183SOL  HW1   4730   1.911   3.846   3.820
 1183SOL  HW2   4731   1.983   3.973   3.778
 1183SOL  MW    4732   1.985   3.892   3.811
 1184SOL  OW    4733   2.336   0.183   0.158
 1184SOL  HW1   4734   2.303   0.181   0.248
 1184SOL  HW2   4735   2.373   0.096   0.144
 1184SOL  MW    4736   2.336   0.172   0.168
 1185SOL  OW    4737   2.295   0.155   0.445
 1185SOL  HW1   4738   2.384   0.167   0.411
 1185SOL  HW2   4739   2.296   0.068   0.483
 1185SOL  MW    4740   2.307   0.146   0.445
 1186SOL  OW    4741   2.332   0.154   0.803
 1186SOL  HW1   4742   2.269   0.090   0.769
 1186SOL  HW2   4743   2.397   0.164   0.734
 1186SOL  MW    4744   2.332   0.147   0.790
 1187SOL  OW    4745   2.318   0.155   1.094
 1187SOL  HW1   4746   2.240   0.126   1.046
 1187SOL  HW2   4747   2.290   0.236   1.136
 1187SOL  MW    4748   2.304   0.162   1.093
 1188SOL  OW    4749   2.308   0.186   1.359
 1188SOL  HW1   4750   2.285   0.102   1.398
 1188SOL  HW2   4751   2.361   0.164   1.283
 1188SOL  MW    4752   2.312   0.173   1.355
 1189SOL  OW    4753   2.346   0.179   1.721
 1189SOL  HW1   4754   2.383   0.225   1.646
 1189SOL  HW2   4755   2.407   0.195   1.793
 1189SOL  MW    4756   2.358   0.187   1.721
 1190SOL  OW    4757   2.306   0.181   1.985
 1190SOL  HW1   4758   2.307   0.232   2.066
 1190SOL  HW2   4759   2.399   0.172   1.961
 1190SOL  MW    4760   2.318   0.186   1.992
 1191SOL  OW    4761   2.329   0.125   2.292
 1191SOL  HW1   4762   2.377   0.201   2.260
 1191SOL  HW2   4763   2.238   0.155   2.295
 1191SOL  MW    4764   2.323   0.139   2.289
 1192SOL  OW    4765   2.303   0.140   2.606
 1192SOL  HW1   4766   2.392   0.130   2.642
 1192SOL  HW2   4767   2.246   0.111   2.677
 1192SOL  MW    4768   2.307   0.135   2.620
 1193SOL  OW    4769   2.333   0.134   2.943
 1193SOL  HW1   4770   2.364   0.099   3.026
 1193SOL  HW2   4771   2.238   0.136   2.951
 1193SOL  MW    4772   2.325   0.130   2.954
 1194SOL  OW    4773   2.274   0.175   3.254
 1194SOL  HW1   4774   2.215   0.210   3.187
 1194SOL  HW2   4775   2.329   0.249   3.279
 1194SOL  MW    4776   2.273   0.189   3.249
 1195SOL  OW    4777   2.300   0.172   3.572
 1195SOL  HW1   4778   2.298   0.141   3.481
 1195SOL  HW2   4779   2.392   0.166   3.597
 1195SOL  MW    4780   2.311   0.167   3.563
 1196SOL  OW    4781   2.332   0.145   3.845
 1196SOL  HW1   4782   2.333   0.126   3.939
 1196SOL  HW2   4783   2.385   0.076   3.806
 1196SOL  MW    4784   2.339   0.134   3.852
 1197SOL  OW    4785   2.330   0.445   0.178
 1197SOL  HW1   4786   2.298   0.534   0.190
 1197SOL  HW2   4787   2.296   0.397   0.254
 1197SOL  MW    4788   2.322   0.450   0.189
 1198SOL  OW    4789   2.294   0.486   0.428
 1198SOL  HW1   4790   2.354   0.546   0.385
 1198SOL  HW2   4791   2.283   0.414   0.367
 1198SOL  MW    4792   2.300   0.485   0.415
 1199SOL  OW    4793   2.271   0.501   0.799
 1199SOL  HW1   4794   2.259   0.437   0.869
 1199SOL  HW2   4795   2.344   0.467   0.747
 1199SOL  MW    4796   2.279   0.489   0.801
 1200SOL  OW    4797   2.338   0.498   1.072
 1200SOL  HW1   4798   2.376   0.568   1.019
 1200SOL  HW2   4799   2.397   0.423   1.059
 1200SOL  MW    4800   2.351   0.497   1.064
 1201SOL  OW    4801   2.291   0.432   1.385
 1201SOL  HW1   4802   2.276   0.338   1.374
 1201SOL  HW2   4803   2.378   0.447   1.349
 1201SOL  MW    4804   2.300   0.422   1.379
 1202SOL  OW    4805   2.285   0.496   1.653
 1202SOL  HW1   4806   2.347   0.502   1.726
 1202SOL  HW2   4807   2.224   0.427   1.678
 1202SOL  MW    4808   2.285   0.488   1.665
 1203SOL  OW    4809   2.279   0.441   1.976
 1203SOL  HW1   4810   2.200   0.447   1.923
 1203SOL  HW2   4811   2.255   0.482   2.059
 1203SOL  MW    4812   2.266   0.447   1.980
 1204SOL  OW    4813   2.286   0.474   2.294
 1204SOL  HW1   4814   2.300   0.546   2.356
 1204SOL  HW2   4815   2.191   0.460   2.295
 1204SOL  MW    4816   2.275   0.481   2.302
 1205SOL  OW    4817   2.317   0.493   2.624
 1205SOL  HW1   4818   2.390   0.554   2.618
 1205SOL  HW2   4819   2.251   0.538   2.676
 1205SOL  MW    4820   2.318   0.506   2.630
 1206SOL  OW    4821   2.323   0.451   2.896
 1206SOL  HW1   4822   2.320   0.543   2.922
 1206SOL  HW2   4823   2.319   0.453   2.800
 1206SOL  MW    4824   2.322   0.463   2.887
 1207SOL  OW    4825   2.293   0.499   3.241
 1207SOL  HW1   4826   2.372   0.478   3.190
 1207SOL  HW2   4827   2.232   0.534   3.176
 1207SOL  MW    4828   2.296   0.500   3.226
 1208SOL  OW    4829   2.290   0.458   3.565
 1208SOL  HW1   4830   2.270   0.390   3.501
 1208SOL  HW2   4831   2.312   0.409   3.645
 1208SOL  MW    4832   2.290   0.443   3.567
 1209SOL  OW    4833   2.321   0.466   3.877
 1209SOL  HW1   4834   2.231   0.488   3.900
 1209SOL  HW2   4835   2.371   0.545   3.900
 1209SOL  MW    4836   2.316   0.479   3.883
 1210SOL  OW    4837   2.321   0.781   0.129
 1210SOL  HW1   4838   2.374   0.713   0.087
 1210SOL  HW2   4839   2.308   0.748   0.218
 1210SOL  MW    4840   2.327   0.768   0.135
 1211SOL  OW    4841   2.276   0.806   0.469
 1211SOL  HW1   4842   2.203   0.842   0.420
 1211SOL  HW2   4843   2.241   0.793   0.558
 1211SOL  MW    4844   2.262   0.809   0.474
 1212SOL  OW    4845   2.301   0.776   0.734
 1212SOL  HW1   4846   2.215   0.788   0.693
 1212SOL  HW2   4847   2.282   0.772   0.828
 1212SOL  MW    4848   2.288   0.777   0.741
 1213SOL  OW    4849   2.333   0.747   1.101
 1213SOL  HW1   4850   2.325   0.654   1.078
 1213SOL  HW2   4851   2.367   0.788   1.022
 1213SOL  MW    4852   2.337   0.740   1.088
 1214SOL  OW    4853   2.310   0.751   1.347
 1214SOL  HW1   4854   2.346   0.773   1.433
 1214SOL  HW2   4855   2.258   0.828   1.322
 1214SOL  MW    4856   2.308   0.764   1.355
 1215SOL  OW    4857   2.333   0.743   1.656
 1215SOL  HW1   4858   2.339   0.745   1.752
 1215SOL  HW2   4859   2.423   0.757   1.627
 1215SOL  MW    4860   2.345   0.745   1.665
 1216SOL  OW    4861   2.328   0.757   1.991
 1216SOL  HW1   4862   2.233   0.765   1.998
 1216SOL  HW2   4863   2.343   0.711   1.909
 1216SOL  MW    4864   2.318   0.752   1.981
 1217SOL  OW    4865   2.287   0.798   2.291
 1217SOL  HW1   4866   2.258   0.886   2.269
 1217SOL  HW2   4867   2.380   0.797   2.267
 1217SOL  MW    4868   2.295   0.809   2.285
 1218SOL  OW    4869   2.285   0.754   2.592
 1218SOL  HW1   4870   2.360   0.718   2.639
 1218SOL  HW2   4871   2.320   0.780   2.507
 1218SOL  MW    4872   2.299   0.753   2.587
 1219SOL  OW    4873   2.293   0.736   2.896
 1219SOL  HW1   4874   2.213   0.777   2.863
 1219SOL  HW2   4875   2.325   0.684   2.822
 1219SOL  MW    4876   2.287   0.734   2.882
 1220SOL  OW    4877   2.301   0.800   3.195
 1220SOL  HW1   4878   2.341   0.714   3.209
 1220SOL  HW2   4879   2.275   0.828   3.283
 1220SOL  MW    4880   2.303   0.792   3.208
 1221SOL  OW    4881   2.285   0.802   3.570
 1221SOL  HW1   4882   2.257   0.829   3.657
 1221SOL  HW2   4883   2.305   0.709   3.578
 1221SOL  MW    4884   2.284   0.793   3.582
 1222SOL  OW    4885   2.322   0.748   3.840
 1222SOL  HW1   4886   2.269   0.707   3.772
 1222SOL  HW2   4887   2.275   0.829   3.862
 1222SOL  MW    4888   2.309   0.753   3.834
 1223SOL  OW    4889   2.285   1.047   0.144
 1223SOL  HW1   4890   2.255   1.122   0.092
 1223SOL  HW2   4891   2.375   1.069   0.167
 1223SOL  MW    4892   2.292   1.060   0.141
 1224SOL  OW    4893   2.314   1.066   0.470
 1224SOL  HW1   4894   2.356   1.010   0.536
 1224SOL  HW2   4895   2.235   1.099   0.514
 1224SOL  MW    4896   2.309   1.063   0.484
 1225SOL  OW    4897   2.291   1.065   0.792
 1225SOL  HW1   4898   2.356   0.995   0.801
 1225SOL  HW2   4899   2.334   1.130   0.737
 1225SOL  MW    4900   2.305   1.064   0.787
 1226SOL  OW    4901   2.338   1.063   1.083
 1226SOL  HW1   4902   2.323   1.088   0.992
 1226SOL  HW2   4903   2.371   1.142   1.125
 1226SOL  MW    4904   2.340   1.076   1.076
 1227SOL  OW    4905   2.290   1.041   1.404
 1227SOL  HW1   4906   2.374   1.073   1.371
 1227SOL  HW2   4907   2.312   0.992   1.483
 1227SOL  MW    4908   2.304   1.039   1.410
 1228SOL  OW    4909   2.281   1.071   1.691
 1228SOL  HW1   4910   2.212   1.114   1.741
 1228SOL  HW2   4911   2.283   1.117   1.607
 1228SOL  MW    4912   2.273   1.082   1.687
 1229SOL  OW    4913   2.282   1.044   1.988
 1229SOL  HW1   4914   2.266   0.960   2.029
 1229SOL  HW2   4915   2.375   1.061   2.004
 1229SOL  MW    4916   2.292   1.036   1.995
 1230SOL  OW    4917   2.344   1.086   2.298
 1230SOL  HW1   4918   2.332   1.000   2.338
 1230SOL  HW2   4919   2.364   1.144   2.372
 1230SOL  MW    4920   2.345   1.083   2.313
 1231SOL  OW    4921   2.271   1.085   2.583
 1231SOL  HW1   4922   2.265   0.994   2.555
 1231SOL  HW2   4923   2.180   1.111   2.596
 1231SOL  MW    4924   2.258   1.077   2.581
 1232SOL  OW    4925   2.311   1.097   2.917
 1232SOL  HW1   4926   2.344   1.148   2.843
 1232SOL  HW2   4927   2.365   1.018   2.917
 1232SOL  MW    4928   2.322   1.093   2.908
 1233SOL  OW    4929   2.292   1.041   3.193
 1233SOL  HW1   4930   2.296   0.962   3.246
 1233SOL  HW2   4931   2.213   1.029   3.139
 1233SOL  MW    4932   2.282   1.029   3.193
 1234SOL  OW    4933   2.302   1.108   3.518
 1234SOL  HW1   4934   2.365   1.176   3.494
 1234SOL  HW2   4935   2.334   1.074   3.601
 1234SOL  MW    4936   2.314   1.112   3.526
 1235SOL  OW    4937   2.314   1.092   3.811
 1235SOL  HW1   4938   2.312   1.044   3.728
 1235SOL  HW2   4939   2.361   1.172   3.791
 1235SOL  MW    4940   2.319   1.096   3.798
 1236SOL  OW    4941   2.280   1.371   0.167
 1236SOL  HW1   4942   2.232   1.440   0.121
 1236SOL  HW2   4943   2.212   1.310   0.196
 1236SOL  MW    4944   2.265   1.372   0.165
 1237SOL  OW    4945   2.303   1.403   0.491
 1237SOL  HW1   4946   2.233   1.376   0.432
 1237SOL  HW2   4947   2.365   1.331   0.490
 1237SOL  MW    4948   2.302   1.390   0.483
 1238SOL  OW    4949   2.328   1.424   0.790
 1238SOL  HW1   4950   2.248   1.440   0.740
 1238SOL  HW2   4951   2.334   1.498   0.851
 1238SOL  MW    4952   2.319   1.435   0.791
 1239SOL  OW    4953   2.336   1.411   1.095
 1239SOL  HW1   4954   2.258   1.424   1.149
 1239SOL  HW2   4955   2.342   1.491   1.043
 1239SOL  MW    4956   2.327   1.423   1.096
 1240SOL  OW    4957   2.332   1.419   1.383
 1240SOL  HW1   4958   2.263   1.362   1.348
 1240SOL  HW2   4959   2.324   1.500   1.331
 1240SOL  MW    4960   2.322   1.422   1.372
 1241SOL  OW    4961   2.319   1.386   1.720
 1241SOL  HW1   4962   2.247   1.449   1.728
 1241SOL  HW2   4963   2.398   1.438   1.729
 1241SOL  MW    4964   2.320   1.401   1.723
 1242SOL  OW    4965   2.302   1.410   2.024
 1242SOL  HW1   4966   2.314   1.452   2.109
 1242SOL  HW2   4967   2.209   1.388   2.020
 1242SOL  MW    4968   2.292   1.413   2.034
 1243SOL  OW    4969   2.345   1.365   2.324
 1243SOL  HW1   4970   2.411   1.351   2.392
 1243SOL  HW2   4971   2.276   1.415   2.368
 1243SOL  MW    4972   2.344   1.369   2.339
 1244SOL  OW    4973   2.328   1.420   2.648
 1244SOL  HW1   4974   2.281   1.389   2.726
 1244SOL  HW2   4975   2.266   1.409   2.576
 1244SOL  MW    4976   2.314   1.414   2.649
 1245SOL  OW    4977   2.314   1.391   2.896
 1245SOL  HW1   4978   2.224   1.397   2.865
 1245SOL  HW2   4979   2.357   1.469   2.862
 1245SOL  MW    4980   2.308   1.402   2.888
 1246SOL  OW    4981   2.346   1.365   3.249
 1246SOL  HW1   4982   2.421   1.306   3.256
 1246SOL  HW2   4983   2.363   1.416   3.169
 1246SOL  MW    4984   2.357   1.364   3.240
 1247SOL  OW    4985   2.331   1.380   3.515
 1247SOL  HW1   4986   2.336   1.320   3.441
 1247SOL  HW2   4987   2.253   1.353   3.563
 1247SOL  MW    4988   2.322   1.369   3.512
 1248SOL  OW    4989   2.283   1.413   3.847
 1248SOL  HW1   4990   2.229   1.478   3.802
 1248SOL  HW2   4991   2.330   1.368   3.777
 1248SOL  MW    4992   2.282   1.416   3.832
 1249SOL  OW    4993   2.275   1.710   0.134
 1249SOL  HW1   4994   2.310   1.623   0.114
 1249SOL  HW2   4995   2.192   1.692   0.178
 1249SOL  MW    4996   2.269   1.696   0.137
 1250SOL  OW    4997   2.338   1.677   0.438
 1250SOL  HW1   4998   2.413   1.718   0.395
 1250SOL  HW2   4999   2.361   1.675   0.531
 1250SOL  MW    5000   2.350   1.682   0.444
 1251SOL  OW    5001   2.274   1.693   0.765
 1251SOL  HW1   5002   2.347   1.688   0.703
 1251SOL  HW2   5003   2.197   1.667   0.715
 1251SOL  MW    5004   2.274   1.689   0.751
 1252SOL  OW    5005   2.328   1.689   1.064
 1252SOL  HW1   5006   2.420   1.688   1.089
 1252SOL  HW2   5007   2.290   1.758   1.119
 1252SOL  MW    5008   2.335   1.698   1.075
 1253SOL  OW    5009   2.289   1.675   1.419
 1253SOL  HW1   5010   2.241   1.695   1.338
 1253SOL  HW2   5011   2.292   1.758   1.466
 1253SOL  MW    5012   2.283   1.688   1.415
 1254SOL  OW    5013   2.281   1.731   1.678
 1254SOL  HW1   5014   2.345   1.666   1.650
 1254SOL  HW2   5015   2.333   1.807   1.705
 1254SOL  MW    5016   2.296   1.733   1.678
 1255SOL  OW    5017   2.275   1.672   1.965
 1255SOL  HW1   5018   2.222   1.707   1.893
 1255SOL  HW2   5019   2.211   1.643   2.030
 1255SOL  MW    5020   2.260   1.673   1.964
 1256SOL  OW    5021   2.331   1.693   2.295
 1256SOL  HW1   5022   2.373   1.767   2.250
 1256SOL  HW2   5023   2.299   1.730   2.377
 1256SOL  MW    5024   2.332   1.707   2.299
 1257SOL  OW    5025   2.321   1.703   2.651
 1257SOL  HW1   5026   2.284   1.788   2.674
 1257SOL  HW2   5027   2.271   1.640   2.703
 1257SOL  MW    5028   2.310   1.706   2.660
 1258SOL  OW    5029   2.345   1.707   2.949
 1258SOL  HW1   5030   2.407   1.755   3.002
 1258SOL  HW2   5031   2.384   1.620   2.937
 1258SOL  MW    5032   2.358   1.702   2.954
 1259SOL  OW    5033   2.331   1.692   3.247
 1259SOL  HW1   5034   2.347   1.618   3.306
 1259SOL  HW2   5035   2.408   1.747   3.257
 1259SOL  MW    5036   2.343   1.689   3.256
 1260SOL  OW    5037   2.274   1.713   3.575
 1260SOL  HW1   5038   2.266   1.653   3.649
 1260SOL  HW2   5039   2.282   1.799   3.616
 1260SOL  MW    5040   2.274   1.716   3.590
 1261SOL  OW    5041   2.274   1.719   3.881
 1261SOL  HW1   5042   2.289   1.625   3.883
 1261SOL  HW2   5043   2.269   1.741   3.788
 1261SOL  MW    5044   2.276   1.710   3.869
 1262SOL  OW    5045   2.286   2.002   0.188
 1262SOL  HW1   5046   2.231   2.080   0.195
 1262SOL  HW2   5047   2.244   1.938   0.246
 1262SOL  MW    5048   2.273   2.004   0.196
 1263SOL  OW    5049   2.345   1.970   0.449
 1263SOL  HW1   5050   2.400   2.047   0.459
 1263SOL  HW2   5051   2.406   1.897   0.445
 1263SOL  MW    5052   2.359   1.971   0.450
 1264SOL  OW    5053   2.324   1.978   0.755
 1264SOL  HW1   5054   2.243   1.932   0.779
 1264SOL  HW2   5055   2.301   2.071   0.759
 1264SOL  MW    5056   2.310   1.984   0.759
 1265SOL  OW    5057   2.270   1.972   1.082
 1265SOL  HW1   5058   2.247   1.992   1.173
 1265SOL  HW2   5059   2.201   1.912   1.053
 1265SOL  MW    5060   2.258   1.967   1.090
 1266SOL  OW    5061   2.320   2.012   1.407
 1266SOL  HW1   5062   2.255   2.006   1.477
 1266SOL  HW2   5063   2.299   2.093   1.361
 1266SOL  MW    5064   2.309   2.022   1.410
 1267SOL  OW    5065   2.301   1.982   1.654
 1267SOL  HW1   5066   2.387   2.024   1.646
 1267SOL  HW2   5067   2.317   1.902   1.704
 1267SOL  MW    5068   2.314   1.977   1.659
 1268SOL  OW    5069   2.284   1.985   1.974
 1268SOL  HW1   5070   2.294   2.065   1.922
 1268SOL  HW2   5071   2.221   2.008   2.042
 1268SOL  MW    5072   2.277   1.998   1.976
 1269SOL  OW    5073   2.269   1.973   2.321
 1269SOL  HW1   5074   2.350   2.013   2.289
 1269SOL  HW2   5075   2.208   1.981   2.248
 1269SOL  MW    5076   2.272   1.979   2.308
 1270SOL  OW    5077   2.318   2.035   2.639
 1270SOL  HW1   5078   2.334   1.941   2.649
 1270SOL  HW2   5079   2.248   2.054   2.701
 1270SOL  MW    5080   2.311   2.025   2.648
 1271SOL  OW    5081   2.313   1.971   2.928
 1271SOL  HW1   5082   2.324   1.884   2.890
 1271SOL  HW2   5083   2.398   1.991   2.967
 1271SOL  MW    5084   2.325   1.962   2.928
 1272SOL  OW    5085   2.273   1.994   3.222
 1272SOL  HW1   5086   2.279   2.008   3.128
 1272SOL  HW2   5087   2.357   1.957   3.246
 1272SOL  MW    5088   2.284   1.991   3.213
 1273SOL  OW    5089   2.302   1.982   3.553
 1273SOL  HW1   5090   2.276   2.005   3.643
 1273SOL  HW2   5091   2.229   2.012   3.499
 1273SOL  MW    5092   2.289   1.989   3.558
 1274SOL  OW    5093   2.335   2.021   3.856
 1274SOL  HW1   5094   2.280   2.089   3.817
 1274SOL  HW2   5095   2.388   1.989   3.784
 1274SOL  MW    5096   2.335   2.026   3.842
 1275SOL  OW    5097   2.311   2.270   0.172
 1275SOL  HW1   5098   2.232   2.309   0.134
 1275SOL  HW2   5099   2.377   2.339   0.164
 1275SOL  MW    5100   2.309   2.284   0.166
 1276SOL  OW    5101   2.311   2.289   0.448
 1276SOL  HW1   5102   2.244   2.342   0.404
 1276SOL  HW2   5103   2.390   2.301   0.394
 1276SOL  MW    5104   2.313   2.298   0.435
 1277SOL  OW    5105   2.343   2.318   0.767
 1277SOL  HW1   5106   2.249   2.303   0.782
 1277SOL  HW2   5107   2.349   2.346   0.676
 1277SOL  MW    5108   2.331   2.319   0.757
 1278SOL  OW    5109   2.317   2.301   1.075
 1278SOL  HW1   5110   2.380   2.300   1.002
 1278SOL  HW2   5111   2.302   2.394   1.092
 1278SOL  MW    5112   2.323   2.313   1.067
 1279SOL  OW    5113   2.291   2.303   1.399
 1279SOL  HW1   5114   2.273   2.284   1.307
 1279SOL  HW2   5115   2.316   2.395   1.400
 1279SOL  MW    5116   2.292   2.312   1.388
 1280SOL  OW    5117   2.271   2.331   1.675
 1280SOL  HW1   5118   2.229   2.416   1.690
 1280SOL  HW2   5119   2.364   2.349   1.686
 1280SOL  MW    5120   2.277   2.344   1.678
 1281SOL  OW    5121   2.322   2.319   2.012
 1281SOL  HW1   5122   2.337   2.411   1.989
 1281SOL  HW2   5123   2.232   2.301   1.984
 1281SOL  MW    5124   2.313   2.329   2.006
 1282SOL  OW    5125   2.316   2.344   2.308
 1282SOL  HW1   5126   2.249   2.333   2.376
 1282SOL  HW2   5127   2.397   2.360   2.357
 1282SOL  MW    5128   2.318   2.345   2.323
 1283SOL  OW    5129   2.326   2.324   2.594
 1283SOL  HW1   5130   2.268   2.357   2.663
 1283SOL  HW2   5131   2.351   2.236   2.623
 1283SOL  MW    5132   2.322   2.317   2.607
 1284SOL  OW    5133   2.290   2.302   2.905
 1284SOL  HW1   5134   2.318   2.391   2.886
 1284SOL  HW2   5135   2.370   2.250   2.896
 1284SOL  MW    5136   2.304   2.306   2.902
 1285SOL  OW    5137   2.297   2.299   3.239
 1285SOL  HW1   5138   2.204   2.291   3.261
 1285SOL  HW2   5139   2.311   2.393   3.227
 1285SOL  MW    5140   2.287   2.310   3.240
 1286SOL  OW    5141   2.285   2.332   3.533
 1286SOL  HW1   5142   2.286   2.244   3.497
 1286SOL  HW2   5143   2.232   2.383   3.472
 1286SOL  MW    5144   2.278   2.327   3.521
 1287SOL  OW    5145   2.324   2.274   3.844
 1287SOL  HW1   5146   2.370   2.342   3.795
 1287SOL  HW2   5147   2.394   2.224   3.887
 1287SOL  MW    5148   2.339   2.277   3.843
 1288SOL  OW    5149   2.270   2.629   0.141
 1288SOL  HW1   5150   2.180   2.660   0.149
 1288SOL  HW2   5151   2.270   2.575   0.063
 1288SOL  MW    5152   2.258   2.626   0.132
 1289SOL  OW    5153   2.344   2.601   0.467
 1289SOL  HW1   5154   2.296   2.557   0.537
 1289SOL  HW2   5155   2.276   2.624   0.403
 1289SOL  MW    5156   2.329   2.598   0.467
 1290SOL  OW    5157   2.288   2.625   0.767
 1290SOL  HW1   5158   2.265   2.718   0.769
 1290SOL  HW2   5159   2.380   2.622   0.794
 1290SOL  MW    5160   2.297   2.637   0.770
 1291SOL  OW    5161   2.297   2.592   1.046
 1291SOL  HW1   5162   2.356   2.580   0.971
 1291SOL  HW2   5163   2.214   2.619   1.008
 1291SOL  MW    5164   2.294   2.594   1.031
 1292SOL  OW    5165   2.277   2.655   1.378
 1292SOL  HW1   5166   2.281   2.599   1.455
 1292SOL  HW2   5167   2.354   2.712   1.385
 1292SOL  MW    5168   2.288   2.655   1.388
 1293SOL  OW    5169   2.268   2.652   1.654
 1293SOL  HW1   5170   2.327   2.630   1.726
 1293SOL  HW2   5171   2.320   2.637   1.575
 1293SOL  MW    5172   2.282   2.647   1.653
 1294SOL  OW    5173   2.301   2.633   2.033
 1294SOL  HW1   5174   2.371   2.635   1.967
 1294SOL  HW2   5175   2.347   2.620   2.116
 1294SOL  MW    5176   2.316   2.631   2.035
 1295SOL  OW    5177   2.325   2.612   2.346
 1295SOL  HW1   5178   2.305   2.521   2.364
 1295SOL  HW2   5179   2.246   2.646   2.303
 1295SOL  MW    5180   2.312   2.605   2.343
 1296SOL  OW    5181   2.271   2.654   2.643
 1296SOL  HW1   5182   2.253   2.724   2.706
 1296SOL  HW2   5183   2.300   2.700   2.565
 1296SOL  MW    5184   2.272   2.669   2.641
 1297SOL  OW    5185   2.342   2.596   2.894
 1297SOL  HW1   5186   2.402   2.556   2.958
 1297SOL  HW2   5187   2.260   2.606   2.942
 1297SOL  MW    5188   2.339   2.592   2.909
 1298SOL  OW    5189   2.321   2.617   3.233
 1298SOL  HW1   5190   2.287   2.612   3.322
 1298SOL  HW2   5191   2.247   2.589   3.177
 1298SOL  MW    5192   2.307   2.613   3.237
 1299SOL  OW    5193   2.342   2.625   3.523
 1299SOL  HW1   5194   2.249   2.615   3.501
 1299SOL  HW2   5195   2.375   2.687   3.458
 1299SOL  MW    5196   2.334   2.632   3.512
 1300SOL  OW    5197   2.300   2.586   3.822
 1300SOL  HW1   5198   2.297   2.550   3.910
 1300SOL  HW2   5199   2.298   2.509   3.765
 1300SOL  MW    5200   2.299   2.572   3.826
 1301SOL  OW    5201   2.279   2.948   0.170
 1301SOL  HW1   5202   2.346   2.926   0.235
 1301SOL  HW2   5203   2.228   3.018   0.211
 1301SOL  MW    5204   2.281   2.954   0.184
 1302SOL  OW    5205   2.310   2.913   0.475
 1302SOL  HW1   5206   2.280   2.943   0.561
 1302SOL  HW2   5207   2.294   2.819   0.476
 1302SOL  MW    5208   2.304   2.905   0.486
 1303SOL  OW    5209   2.333   2.954   0.773
 1303SOL  HW1   5210   2.254   2.971   0.721
 1303SOL  HW2   5211   2.306   2.974   0.863
 1303SOL  MW    5212   2.319   2.958   0.778
 1304SOL  OW    5213   2.333   2.924   1.075
 1304SOL  HW1   5214   2.373   3.008   1.052
 1304SOL  HW2   5215   2.332   2.875   0.993
 1304SOL  MW    5216   2.338   2.928   1.061
 1305SOL  OW    5217   2.337   2.914   1.376
 1305SOL  HW1   5218   2.274   2.979   1.345
 1305SOL  HW2   5219   2.334   2.921   1.472
 1305SOL  MW    5220   2.329   2.923   1.385
 1306SOL  OW    5221   2.292   2.925   1.696
 1306SOL  HW1   5222   2.207   2.921   1.652
 1306SOL  HW2   5223   2.344   2.985   1.643
 1306SOL  MW    5224   2.288   2.932   1.683
 1307SOL  OW    5225   2.321   2.918   1.977
 1307SOL  HW1   5226   2.259   2.889   1.909
 1307SOL  HW2   5227   2.267   2.922   2.057
 1307SOL  MW    5228   2.306   2.915   1.979
 1308SOL  OW    5229   2.337   2.911   2.342
 1308SOL  HW1   5230   2.415   2.941   2.295
 1308SOL  HW2   5231   2.358   2.821   2.367
 1308SOL  MW    5232   2.350   2.903   2.339
 1309SOL  OW    5233   2.284   2.928   2.618
 1309SOL  HW1   5234   2.241   2.902   2.537
 1309SOL  HW2   5235   2.378   2.927   2.597
 1309SOL  MW    5236   2.291   2.924   2.605
 1310SOL  OW    5237   2.334   2.894   2.956
 1310SOL  HW1   5238   2.247   2.911   2.991
 1310SOL  HW2   5239   2.393   2.919   3.027
 1310SOL  MW    5240   2.330   2.899   2.969
 1311SOL  OW    5241   2.310   2.930   3.232
 1311SOL  HW1   5242   2.285   3.005   3.178
 1311SOL  HW2   5243   2.303   2.855   3.173
 1311SOL  MW    5244   2.306   2.930   3.217
 1312SOL  OW    5245   2.271   2.923   3.520
 1312SOL  HW1   5246   2.295   2.834   3.494
 1312SOL  HW2   5247   2.175   2.920   3.529
 1312SOL  MW    5248   2.262   2.911   3.518
 1313SOL  OW    5249   2.295   2.935   3.846
 1313SOL  HW1   5250   2.311   3.016   3.797
 1313SOL  HW2   5251   2.219   2.896   3.803
 1313SOL  MW    5252   2.287   2.940   3.834
 1314SOL  OW    5253   2.275   3.197   0.129
 1314SOL  HW1   5254   2.211   3.265   0.109
 1314SOL  HW2   5255   2.285   3.148   0.047
 1314SOL  MW    5256   2.268   3.199   0.116
 1315SOL  OW    5257   2.283   3.239   0.436
 1315SOL  HW1   5258   2.209   3.300   0.440
 1315SOL  HW2   5259   2.274   3.197   0.351
 1315SOL  MW    5260   2.272   3.242   0.425
 1316SOL  OW    5261   2.338   3.208   0.737
 1316SOL  HW1   5262   2.316   3.297   0.761
 1316SOL  HW2   5263   2.270   3.154   0.776
 1316SOL  MW    5264   2.327   3.212   0.745
 1317SOL  OW    5265   2.338   3.214   1.071
 1317SOL  HW1   5266   2.260   3.215   1.127
 1317SOL  HW2   5267   2.399   3.154   1.114
 1317SOL  MW    5268   2.336   3.207   1.084
 1318SOL  OW    5269   2.344   3.266   1.402
 1318SOL  HW1   5270   2.353   3.265   1.497
 1318SOL  HW2   5271   2.419   3.215   1.370
 1318SOL  MW    5272   2.355   3.260   1.410
 1319SOL  OW    5273   2.273   3.238   1.731
 1319SOL  HW1   5274   2.199   3.261   1.788
 1319SOL  HW2   5275   2.251   3.152   1.696
 1319SOL  MW    5276   2.261   3.230   1.734
 1320SOL  OW    5277   2.343   3.199   1.992
 1320SOL  HW1   5278   2.259   3.233   1.961
 1320SOL  HW2   5279   2.387   3.275   2.030
 1320SOL  MW    5280   2.338   3.213   1.993
 1321SOL  OW    5281   2.293   3.201   2.323
 1321SOL  HW1   5282   2.327   3.270   2.381
 1321SOL  HW2   5283   2.318   3.119   2.366
 1321SOL  MW    5284   2.300   3.199   2.336
 1322SOL  OW    5285   2.290   3.218   2.583
 1322SOL  HW1   5286   2.290   3.278   2.657
 1322SOL  HW2   5287   2.226   3.151   2.606
 1322SOL  MW    5288   2.282   3.217   2.595
 1323SOL  OW    5289   2.308   3.203   2.918
 1323SOL  HW1   5290   2.383   3.146   2.903
 1323SOL  HW2   5291   2.274   3.178   3.003
 1323SOL  MW    5292   2.313   3.193   2.927
 1324SOL  OW    5293   2.279   3.267   3.202
 1324SOL  HW1   5294   2.317   3.322   3.134
 1324SOL  HW2   5295   2.341   3.272   3.275
 1324SOL  MW    5296   2.292   3.275   3.203
 1325SOL  OW    5297   2.309   3.207   3.505
 1325SOL  HW1   5298   2.330   3.125   3.551
 1325SOL  HW2   5299   2.394   3.248   3.489
 1325SOL  MW    5300   2.323   3.201   3.508
 1326SOL  OW    5301   2.284   3.195   3.817
 1326SOL  HW1   5302   2.267   3.165   3.907
 1326SOL  HW2   5303   2.378   3.185   3.806
 1326SOL  MW    5304   2.294   3.190   3.827
 1327SOL  OW    5305   2.307   3.551   0.121
 1327SOL  HW1   5306   2.214   3.527   0.122
 1327SOL  HW2   5307   2.353   3.468   0.136
 1327SOL  MW    5308   2.301   3.537   0.123
 1328SOL  OW    5309   2.303   3.545   0.440
 1328SOL  HW1   5310   2.295   3.598   0.361
 1328SOL  HW2   5311   2.364   3.593   0.496
 1328SOL  MW    5312   2.310   3.558   0.437
 1329SOL  OW    5313   2.297   3.504   0.747
 1329SOL  HW1   5314   2.300   3.577   0.809
 1329SOL  HW2   5315   2.206   3.475   0.749
 1329SOL  MW    5316   2.286   3.510   0.755
 1330SOL  OW    5317   2.305   3.578   1.117
 1330SOL  HW1   5318   2.276   3.588   1.026
 1330SOL  HW2   5319   2.400   3.572   1.110
 1330SOL  MW    5320   2.313   3.578   1.104
 1331SOL  OW    5321   2.346   3.532   1.351
 1331SOL  HW1   5322   2.440   3.545   1.367
 1331SOL  HW2   5323   2.312   3.621   1.338
 1331SOL  MW    5324   2.354   3.545   1.351
 1332SOL  OW    5325   2.294   3.517   1.653
 1332SOL  HW1   5326   2.377   3.558   1.631
 1332SOL  HW2   5327   2.256   3.576   1.719
 1332SOL  MW    5328   2.299   3.530   1.659
 1333SOL  OW    5329   2.275   3.535   1.987
 1333SOL  HW1   5330   2.206   3.531   1.922
 1333SOL  HW2   5331   2.331   3.459   1.968
 1333SOL  MW    5332   2.273   3.525   1.976
 1334SOL  OW    5333   2.282   3.556   2.296
 1334SOL  HW1   5334   2.260   3.463   2.293
 1334SOL  HW2   5335   2.340   3.564   2.372
 1334SOL  MW    5336   2.287   3.545   2.305
 1335SOL  OW    5337   2.336   3.518   2.618
 1335SOL  HW1   5338   2.416   3.517   2.671
 1335SOL  HW2   5339   2.296   3.603   2.637
 1335SOL  MW    5340   2.341   3.528   2.628
 1336SOL  OW    5341   2.282   3.538   2.895
 1336SOL  HW1   5342   2.352   3.597   2.925
 1336SOL  HW2   5343   2.329   3.463   2.860
 1336SOL  MW    5344   2.297   3.536   2.894
 1337SOL  OW    5345   2.281   3.547   3.212
 1337SOL  HW1   5346   2.233   3.475   3.172
 1337SOL  HW2   5347   2.266   3.537   3.306
 1337SOL  MW    5348   2.273   3.537   3.219
 1338SOL  OW    5349   2.281   3.573   3.502
 1338SOL  HW1   5350   2.212   3.601   3.562
 1338SOL  HW2   5351   2.283   3.478   3.511
 1338SOL  MW    5352   2.273   3.564   3.511
 1339SOL  OW    5353   2.313   3.542   3.826
 1339SOL  HW1   5354   2.397   3.553   3.782
 1339SOL  HW2   5355   2.306   3.448   3.841
 1339SOL  MW    5356   2.323   3.532   3.822
 1340SOL  OW    5357   2.304   3.813   0.172
 1340SOL  HW1   5358   2.321   3.796   0.264
 1340SOL  HW2   5359   2.256   3.736   0.142
 1340SOL  MW    5360   2.300   3.801   0.180
 1341SOL  OW    5361   2.285   3.822   0.447
 1341SOL  HW1   5362   2.295   3.869   0.530
 1341SOL  HW2   5363   2.347   3.749   0.453
 1341SOL  MW    5364   2.295   3.818   0.458
 1342SOL  OW    5365   2.340   3.870   0.805
 1342SOL  HW1   5366   2.323   3.946   0.860
 1342SOL  HW2   5367   2.299   3.892   0.721
 1342SOL  MW    5368   2.333   3.882   0.801
 1343SOL  OW    5369   2.320   3.859   1.075
 1343SOL  HW1   5370   2.232   3.888   1.100
 1343SOL  HW2   5371   2.366   3.851   1.159
 1343SOL  MW    5372   2.315   3.862   1.089
 1344SOL  OW    5373   2.340   3.847   1.373
 1344SOL  HW1   5374   2.282   3.906   1.325
 1344SOL  HW2   5375   2.409   3.904   1.407
 1344SOL  MW    5376   2.341   3.862   1.371
 1345SOL  OW    5377   2.319   3.850   1.662
 1345SOL  HW1   5378   2.319   3.916   1.593
 1345SOL  HW2   5379   2.264   3.887   1.731
 1345SOL  MW    5380   2.312   3.863   1.662
 1346SOL  OW    5381   2.299   3.831   2.028
 1346SOL  HW1   5382   2.279   3.879   1.947
 1346SOL  HW2   5383   2.376   3.778   2.006
 1346SOL  MW    5384   2.306   3.831   2.015
 1347SOL  OW    5385   2.298   3.872   2.303
 1347SOL  HW1   5386   2.258   3.958   2.317
 1347SOL  HW2   5387   2.284   3.854   2.210
 1347SOL  MW    5388   2.291   3.881   2.293
 1348SOL  OW    5389   2.328   3.817   2.649
 1348SOL  HW1   5390   2.274   3.748   2.610
 1348SOL  HW2   5391   2.375   3.773   2.720
 1348SOL  MW    5392   2.327   3.803   2.653
 1349SOL  OW    5393   2.306   3.827   2.902
 1349SOL  HW1   5394   2.388   3.795   2.941
 1349SOL  HW2   5395   2.242   3.823   2.974
 1349SOL  MW    5396   2.308   3.822   2.916
 1350SOL  OW    5397   2.289   3.835   3.248
 1350SOL  HW1   5398   2.304   3.868   3.160
 1350SOL  HW2   5399   2.242   3.906   3.292
 1350SOL  MW    5400   2.285   3.849   3.242
 1351SOL  OW    5401   2.344   3.860   3.542
 1351SOL  HW1   5402   2.334   3.768   3.567
 1351SOL  HW2   5403   2.270   3.904   3.585
 1351SOL  MW    5404   2.333   3.854   3.551
 1352SOL  OW    5405   2.304   3.872   3.874
 1352SOL  HW1   5406   2.311   3.966   3.854
 1352SOL  HW2   5407   2.213   3.851   3.852
 1352SOL  MW    5408   2.293   3.882   3.869
 1353SOL  OW    5409   2.599   0.190   0.145
 1353SOL  HW1   5410   2.523   0.147   0.184
 1353SOL  HW2   5411   2.580   0.192   0.052
 1353SOL  MW    5412   2.587   0.185   0.138
 1354SOL  OW    5413   2.639   0.191   0.478
 1354SOL  HW1   5414   2.585   0.169   0.403
 1354SOL  HW2   5415   2.579   0.232   0.540
 1354SOL  MW    5416   2.625   0.194   0.476
 1355SOL  OW    5417   2.588   0.161   0.739
 1355SOL  HW1   5418   2.646   0.104   0.791
 1355SOL  HW2   5419   2.618   0.149   0.648
 1355SOL  MW    5420   2.599   0.152   0.734
 1356SOL  OW    5421   2.639   0.136   1.093
 1356SOL  HW1   5422   2.625   0.218   1.141
 1356SOL  HW2   5423   2.558   0.087   1.105
 1356SOL  MW    5424   2.626   0.140   1.100
 1357SOL  OW    5425   2.648   0.128   1.376
 1357SOL  HW1   5426   2.669   0.112   1.284
 1357SOL  HW2   5427   2.639   0.223   1.382
 1357SOL  MW    5428   2.650   0.138   1.365
 1358SOL  OW    5429   2.627   0.147   1.666
 1358SOL  HW1   5430   2.640   0.140   1.761
 1358SOL  HW2   5431   2.610   0.058   1.637
 1358SOL  MW    5432   2.627   0.135   1.675
 1359SOL  OW    5433   2.578   0.146   2.012
 1359SOL  HW1   5434   2.483   0.137   2.001
 1359SOL  HW2   5435   2.598   0.232   1.975
 1359SOL  MW    5436   2.568   0.156   2.006
 1360SOL  OW    5437   2.621   0.126   2.304
 1360SOL  HW1   5438   2.716   0.110   2.300
 1360SOL  HW2   5439   2.591   0.113   2.214
 1360SOL  MW    5440   2.630   0.122   2.292
 1361SOL  OW    5441   2.605   0.136   2.634
 1361SOL  HW1   5442   2.585   0.126   2.541
 1361SOL  HW2   5443   2.523   0.115   2.678
 1361SOL  MW    5444   2.592   0.132   2.628
 1362SOL  OW    5445   2.600   0.157   2.957
 1362SOL  HW1   5446   2.511   0.127   2.972
 1362SOL  HW2   5447   2.653   0.077   2.959
 1362SOL  MW    5448   2.595   0.143   2.959
 1363SOL  OW    5449   2.619   0.163   3.197
 1363SOL  HW1   5450   2.557   0.231   3.169
 1363SOL  HW2   5451   2.610   0.095   3.130
 1363SOL  MW    5452   2.610   0.163   3.185
 1364SOL  OW    5453   2.590   0.122   3.560
 1364SOL  HW1   5454   2.561   0.212   3.546
 1364SOL  HW2   5455   2.619   0.120   3.651
 1364SOL  MW    5456   2.590   0.133   3.570
 1365SOL  OW    5457   2.642   0.129   3.824
 1365SOL  HW1   5458   2.551   0.155   3.834
 1365SOL  HW2   5459   2.646   0.040   3.860
 1365SOL  MW    5460   2.631   0.121   3.830
 1366SOL  OW    5461   2.601   0.469   0.164
 1366SOL  HW1   5462   2.538   0.520   0.213
 1366SOL  HW2   5463   2.596   0.381   0.201
 1366SOL  MW    5464   2.592   0.464   0.175
 1367SOL  OW    5465   2.630   0.494   0.445
 1367SOL  HW1   5466   2.551   0.458   0.486
 1367SOL  HW2   5467   2.702   0.452   0.492
 1367SOL  MW    5468   2.629   0.484   0.456
 1368SOL  OW    5469   2.628   0.466   0.754
 1368SOL  HW1   5470   2.643   0.465   0.659
 1368SOL  HW2   5471   2.655   0.379   0.784
 1368SOL  MW    5472   2.633   0.455   0.745
 1369SOL  OW    5473   2.648   0.429   1.094
 1369SOL  HW1   5474   2.638   0.348   1.044
 1369SOL  HW2   5475   2.733   0.421   1.137
 1369SOL  MW    5476   2.658   0.418   1.093
 1370SOL  OW    5477   2.634   0.495   1.386
 1370SOL  HW1   5478   2.573   0.422   1.373
 1370SOL  HW2   5479   2.636   0.507   1.481
 1370SOL  MW    5480   2.626   0.487   1.397
 1371SOL  OW    5481   2.601   0.488   1.714
 1371SOL  HW1   5482   2.628   0.462   1.626
 1371SOL  HW2   5483   2.619   0.582   1.718
 1371SOL  MW    5484   2.607   0.497   1.703
 1372SOL  OW    5485   2.615   0.483   1.981
 1372SOL  HW1   5486   2.701   0.526   1.980
 1372SOL  HW2   5487   2.636   0.391   1.998
 1372SOL  MW    5488   2.629   0.477   1.983
 1373SOL  OW    5489   2.623   0.491   2.293
 1373SOL  HW1   5490   2.631   0.573   2.245
 1373SOL  HW2   5491   2.580   0.515   2.375
 1373SOL  MW    5492   2.618   0.504   2.297
 1374SOL  OW    5493   2.614   0.498   2.639
 1374SOL  HW1   5494   2.526   0.536   2.633
 1374SOL  HW2   5495   2.600   0.403   2.630
 1374SOL  MW    5496   2.601   0.490   2.637
 1375SOL  OW    5497   2.646   0.452   2.963
 1375SOL  HW1   5498   2.673   0.415   3.047
 1375SOL  HW2   5499   2.722   0.438   2.906
 1375SOL  MW    5500   2.659   0.446   2.966
 1376SOL  OW    5501   2.588   0.463   3.229
 1376SOL  HW1   5502   2.510   0.505   3.267
 1376SOL  HW2   5503   2.660   0.521   3.253
 1376SOL  MW    5504   2.587   0.476   3.237
 1377SOL  OW    5505   2.639   0.494   3.557
 1377SOL  HW1   5506   2.616   0.585   3.575
 1377SOL  HW2   5507   2.628   0.485   3.462
 1377SOL  MW    5508   2.635   0.505   3.547
 1378SOL  OW    5509   2.626   0.456   3.847
 1378SOL  HW1   5510   2.708   0.433   3.803
 1378SOL  HW2   5511   2.562   0.392   3.813
 1378SOL  MW    5512   2.628   0.445   3.837
 1379SOL  OW    5513   2.616   0.731   0.154
 1379SOL  HW1   5514   2.558   0.657   0.136
 1379SOL  HW2   5515   2.674   0.699   0.224
 1379SOL  MW    5516   2.616   0.717   0.161
 1380SOL  OW    5517   2.644   0.786   0.485
 1380SOL  HW1   5518   2.589   0.853   0.526
 1380SOL  HW2   5519   2.629   0.707   0.537
 1380SOL  MW    5520   2.635   0.784   0.497
 1381SOL  OW    5521   2.607   0.772   0.732
 1381SOL  HW1   5522   2.692   0.733   0.750
 1381SOL  HW2   5523   2.544   0.706   0.763
 1381SOL  MW    5524   2.610   0.758   0.738
 1382SOL  OW    5525   2.606   0.767   1.057
 1382SOL  HW1   5526   2.671   0.722   1.111
 1382SOL  HW2   5527   2.658   0.819   0.995
 1382SOL  MW    5528   2.621   0.768   1.056
 1383SOL  OW    5529   2.578   0.784   1.379
 1383SOL  HW1   5530   2.639   0.772   1.452
 1383SOL  HW2   5531   2.584   0.878   1.358
 1383SOL  MW    5532   2.586   0.795   1.386
 1384SOL  OW    5533   2.609   0.749   1.695
 1384SOL  HW1   5534   2.664   0.685   1.740
 1384SOL  HW2   5535   2.519   0.725   1.719
 1384SOL  MW    5536   2.604   0.738   1.704
 1385SOL  OW    5537   2.610   0.767   2.006
 1385SOL  HW1   5538   2.530   0.813   2.032
 1385SOL  HW2   5539   2.601   0.680   2.045
 1385SOL  MW    5540   2.599   0.762   2.015
 1386SOL  OW    5541   2.576   0.802   2.273
 1386SOL  HW1   5542   2.644   0.821   2.338
 1386SOL  HW2   5543   2.510   0.870   2.287
 1386SOL  MW    5544   2.576   0.813   2.283
 1387SOL  OW    5545   2.611   0.746   2.617
 1387SOL  HW1   5546   2.677   0.695   2.665
 1387SOL  HW2   5547   2.637   0.738   2.525
 1387SOL  MW    5548   2.623   0.738   2.612
 1388SOL  OW    5549   2.598   0.798   2.915
 1388SOL  HW1   5550   2.611   0.843   2.831
 1388SOL  HW2   5551   2.503   0.791   2.923
 1388SOL  MW    5552   2.587   0.803   2.905
 1389SOL  OW    5553   2.626   0.749   3.192
 1389SOL  HW1   5554   2.708   0.770   3.237
 1389SOL  HW2   5555   2.563   0.812   3.227
 1389SOL  MW    5556   2.629   0.760   3.203
 1390SOL  OW    5557   2.608   0.772   3.535
 1390SOL  HW1   5558   2.644   0.778   3.624
 1390SOL  HW2   5559   2.542   0.703   3.541
 1390SOL  MW    5560   2.604   0.764   3.547
 1391SOL  OW    5561   2.652   0.786   3.886
 1391SOL  HW1   5562   2.631   0.758   3.797
 1391SOL  HW2   5563   2.586   0.851   3.908
 1391SOL  MW    5564   2.641   0.791   3.877
 1392SOL  OW    5565   2.599   1.100   0.158
 1392SOL  HW1   5566   2.535   1.155   0.203
 1392SOL  HW2   5567   2.583   1.115   0.065
 1392SOL  MW    5568   2.589   1.109   0.152
 1393SOL  OW    5569   2.624   1.116   0.474
 1393SOL  HW1   5570   2.643   1.207   0.451
 1393SOL  HW2   5571   2.645   1.109   0.567
 1393SOL  MW    5572   2.629   1.127   0.483
 1394SOL  OW    5573   2.647   1.095   0.739
 1394SOL  HW1   5574   2.596   1.015   0.749
 1394SOL  HW2   5575   2.721   1.070   0.684
 1394SOL  MW    5576   2.650   1.082   0.733
 1395SOL  OW    5577   2.631   1.076   1.110
 1395SOL  HW1   5578   2.620   1.171   1.116
 1395SOL  HW2   5579   2.600   1.053   1.023
 1395SOL  MW    5580   2.626   1.085   1.100
 1396SOL  OW    5581   2.640   1.045   1.355
 1396SOL  HW1   5582   2.602   1.006   1.277
 1396SOL  HW2   5583   2.601   0.997   1.428
 1396SOL  MW    5584   2.630   1.034   1.355
 1397SOL  OW    5585   2.581   1.076   1.659
 1397SOL  HW1   5586   2.640   1.126   1.602
 1397SOL  HW2   5587   2.533   1.143   1.707
 1397SOL  MW    5588   2.582   1.091   1.658
 1398SOL  OW    5589   2.633   1.081   2.027
 1398SOL  HW1   5590   2.677   1.159   1.993
 1398SOL  HW2   5591   2.691   1.009   2.002
 1398SOL  MW    5592   2.646   1.082   2.019
 1399SOL  OW    5593   2.598   1.078   2.277
 1399SOL  HW1   5594   2.614   1.026   2.355
 1399SOL  HW2   5595   2.506   1.061   2.254
 1399SOL  MW    5596   2.588   1.069   2.284
 1400SOL  OW    5597   2.646   1.051   2.584
 1400SOL  HW1   5598   2.720   1.039   2.524
 1400SOL  HW2   5599   2.589   0.976   2.567
 1400SOL  MW    5600   2.648   1.040   2.574
 1401SOL  OW    5601   2.592   1.101   2.892
 1401SOL  HW1   5602   2.568   1.010   2.880
 1401SOL  HW2   5603   2.509   1.146   2.909
 1401SOL  MW    5604   2.578   1.095   2.892
 1402SOL  OW    5605   2.625   1.097   3.251
 1402SOL  HW1   5606   2.683   1.091   3.326
 1402SOL  HW2   5607   2.659   1.032   3.189
 1402SOL  MW    5608   2.636   1.088   3.253
 1403SOL  OW    5609   2.591   1.042   3.534
 1403SOL  HW1   5610   2.645   1.117   3.559
 1403SOL  HW2   5611   2.588   0.986   3.612
 1403SOL  MW    5612   2.597   1.044   3.548
 1404SOL  OW    5613   2.592   1.093   3.835
 1404SOL  HW1   5614   2.559   1.032   3.769
 1404SOL  HW2   5615   2.685   1.073   3.842
 1404SOL  MW    5616   2.599   1.082   3.827
 1405SOL  OW    5617   2.611   1.354   0.159
 1405SOL  HW1   5618   2.574   1.272   0.127
 1405SOL  HW2   5619   2.692   1.328   0.203
 1405SOL  MW    5620   2.617   1.340   0.161
 1406SOL  OW    5621   2.590   1.399   0.427
 1406SOL  HW1   5622   2.669   1.430   0.471
 1406SOL  HW2   5623   2.614   1.395   0.335
 1406SOL  MW    5624   2.603   1.402   0.421
 1407SOL  OW    5625   2.653   1.399   0.744
 1407SOL  HW1   5626   2.575   1.380   0.693
 1407SOL  HW2   5627   2.687   1.313   0.768
 1407SOL  MW    5628   2.648   1.386   0.740
 1408SOL  OW    5629   2.577   1.371   1.049
 1408SOL  HW1   5630   2.591   1.440   1.114
 1408SOL  HW2   5631   2.664   1.337   1.032
 1408SOL  MW    5632   2.590   1.376   1.055
 1409SOL  OW    5633   2.593   1.414   1.393
 1409SOL  HW1   5634   2.621   1.331   1.356
 1409SOL  HW2   5635   2.609   1.406   1.487
 1409SOL  MW    5636   2.599   1.403   1.400
 1410SOL  OW    5637   2.590   1.389   1.673
 1410SOL  HW1   5638   2.633   1.467   1.637
 1410SOL  HW2   5639   2.658   1.322   1.675
 1410SOL  MW    5640   2.604   1.390   1.668
 1411SOL  OW    5641   2.653   1.347   2.019
 1411SOL  HW1   5642   2.639   1.253   2.006
 1411SOL  HW2   5643   2.723   1.369   1.957
 1411SOL  MW    5644   2.661   1.338   2.009
 1412SOL  OW    5645   2.637   1.350   2.281
 1412SOL  HW1   5646   2.718   1.338   2.232
 1412SOL  HW2   5647   2.666   1.384   2.366
 1412SOL  MW    5648   2.651   1.353   2.286
 1413SOL  OW    5649   2.606   1.414   2.618
 1413SOL  HW1   5650   2.666   1.475   2.661
 1413SOL  HW2   5651   2.527   1.466   2.601
 1413SOL  MW    5652   2.604   1.428   2.622
 1414SOL  OW    5653   2.628   1.407   2.949
 1414SOL  HW1   5654   2.539   1.431   2.924
 1414SOL  HW2   5655   2.670   1.381   2.868
 1414SOL  MW    5656   2.622   1.407   2.936
 1415SOL  OW    5657   2.613   1.385   3.248
 1415SOL  HW1   5658   2.525   1.351   3.262
 1415SOL  HW2   5659   2.601   1.464   3.195
 1415SOL  MW    5660   2.601   1.391   3.243
 1416SOL  OW    5661   2.596   1.413   3.500
 1416SOL  HW1   5662   2.591   1.475   3.572
 1416SOL  HW2   5663   2.689   1.410   3.477
 1416SOL  MW    5664   2.608   1.421   3.506
 1417SOL  OW    5665   2.591   1.409   3.833
 1417SOL  HW1   5666   2.520   1.471   3.818
 1417SOL  HW2   5667   2.566   1.362   3.913
 1417SOL  MW    5668   2.579   1.411   3.842
 1418SOL  OW    5669   2.587   1.667   0.156
 1418SOL  HW1   5670   2.589   1.684   0.251
 1418SOL  HW2   5671   2.678   1.647   0.134
 1418SOL  MW    5672   2.599   1.667   0.165
 1419SOL  OW    5673   2.643   1.658   0.424
 1419SOL  HW1   5674   2.678   1.583   0.471
 1419SOL  HW2   5675   2.548   1.645   0.425
 1419SOL  MW    5676   2.635   1.647   0.430
 1420SOL  OW    5677   2.613   1.729   0.752
 1420SOL  HW1   5678   2.535   1.780   0.774
 1420SOL  HW2   5679   2.579   1.642   0.730
 1420SOL  MW    5680   2.598   1.724   0.752
 1421SOL  OW    5681   2.652   1.723   1.060
 1421SOL  HW1   5682   2.698   1.782   0.999
 1421SOL  HW2   5683   2.661   1.765   1.145
 1421SOL  MW    5684   2.659   1.736   1.063
 1422SOL  OW    5685   2.641   1.707   1.386
 1422SOL  HW1   5686   2.583   1.717   1.310
 1422SOL  HW2   5687   2.635   1.614   1.408
 1422SOL  MW    5688   2.633   1.697   1.379
 1423SOL  OW    5689   2.609   1.718   1.716
 1423SOL  HW1   5690   2.589   1.808   1.739
 1423SOL  HW2   5691   2.528   1.670   1.733
 1423SOL  MW    5692   2.596   1.723   1.721
 1424SOL  OW    5693   2.636   1.732   1.998
 1424SOL  HW1   5694   2.662   1.727   2.090
 1424SOL  HW2   5695   2.673   1.815   1.968
 1424SOL  MW    5696   2.644   1.742   2.006
 1425SOL  OW    5697   2.640   1.721   2.285
 1425SOL  HW1   5698   2.687   1.700   2.365
 1425SOL  HW2   5699   2.705   1.712   2.215
 1425SOL  MW    5700   2.654   1.717   2.286
 1426SOL  OW    5701   2.579   1.685   2.644
 1426SOL  HW1   5702   2.546   1.717   2.560
 1426SOL  HW2   5703   2.622   1.602   2.623
 1426SOL  MW    5704   2.580   1.678   2.630
 1427SOL  OW    5705   2.599   1.708   2.884
 1427SOL  HW1   5706   2.633   1.638   2.939
 1427SOL  HW2   5707   2.545   1.664   2.818
 1427SOL  MW    5708   2.596   1.694   2.882
 1428SOL  OW    5709   2.604   1.702   3.201
 1428SOL  HW1   5710   2.589   1.612   3.171
 1428SOL  HW2   5711   2.525   1.749   3.175
 1428SOL  MW    5712   2.592   1.696   3.194
 1429SOL  OW    5713   2.647   1.665   3.571
 1429SOL  HW1   5714   2.697   1.741   3.542
 1429SOL  HW2   5715   2.559   1.680   3.538
 1429SOL  MW    5716   2.642   1.676   3.563
 1430SOL  OW    5717   2.593   1.732   3.855
 1430SOL  HW1   5718   2.582   1.795   3.926
 1430SOL  HW2   5719   2.687   1.719   3.849
 1430SOL  MW    5720   2.603   1.738   3.863
 1431SOL  OW    5721   2.582   1.965   0.120
 1431SOL  HW1   5722   2.550   1.877   0.102
 1431SOL  HW2   5723   2.537   1.992   0.200
 1431SOL  MW    5724   2.572   1.957   0.128
 1432SOL  OW    5725   2.623   2.025   0.454
 1432SOL  HW1   5726   2.536   2.036   0.414
 1432SOL  HW2   5727   2.648   1.936   0.430
 1432SOL  MW    5728   2.615   2.015   0.446
 1433SOL  OW    5729   2.611   2.007   0.772
 1433SOL  HW1   5730   2.601   1.913   0.785
 1433SOL  HW2   5731   2.529   2.035   0.730
 1433SOL  MW    5732   2.599   1.999   0.768
 1434SOL  OW    5733   2.630   1.998   1.094
 1434SOL  HW1   5734   2.638   2.053   1.017
 1434SOL  HW2   5735   2.720   1.968   1.111
 1434SOL  MW    5736   2.643   2.001   1.086
 1435SOL  OW    5737   2.655   1.988   1.346
 1435SOL  HW1   5738   2.597   2.064   1.350
 1435SOL  HW2   5739   2.738   2.018   1.384
 1435SOL  MW    5740   2.658   2.002   1.351
 1436SOL  OW    5741   2.585   2.004   1.680
 1436SOL  HW1   5742   2.605   2.089   1.720
 1436SOL  HW2   5743   2.661   1.950   1.701
 1436SOL  MW    5744   2.598   2.008   1.688
 1437SOL  OW    5745   2.651   2.010   2.002
 1437SOL  HW1   5746   2.683   1.921   2.014
 1437SOL  HW2   5747   2.671   2.031   1.910
 1437SOL  MW    5748   2.657   2.001   1.991
 1438SOL  OW    5749   2.639   1.981   2.333
 1438SOL  HW1   5750   2.673   2.033   2.406
 1438SOL  HW2   5751   2.673   2.025   2.255
 1438SOL  MW    5752   2.648   1.993   2.333
 1439SOL  OW    5753   2.576   2.010   2.650
 1439SOL  HW1   5754   2.665   1.993   2.681
 1439SOL  HW2   5755   2.531   1.926   2.660
 1439SOL  MW    5756   2.581   1.997   2.655
 1440SOL  OW    5757   2.638   2.028   2.915
 1440SOL  HW1   5758   2.545   2.012   2.927
 1440SOL  HW2   5759   2.676   2.023   3.003
 1440SOL  MW    5760   2.631   2.025   2.928
 1441SOL  OW    5761   2.641   2.004   3.240
 1441SOL  HW1   5762   2.635   2.091   3.200
 1441SOL  HW2   5763   2.585   2.009   3.317
 1441SOL  MW    5764   2.633   2.016   3.245
 1442SOL  OW    5765   2.580   1.976   3.543
 1442SOL  HW1   5766   2.522   2.013   3.609
 1442SOL  HW2   5767   2.620   1.900   3.584
 1442SOL  MW    5768   2.578   1.971   3.556
 1443SOL  OW    5769   2.580   2.019   3.873
 1443SOL  HW1   5770   2.493   2.003   3.909
 1443SOL  HW2   5771   2.605   2.105   3.908
 1443SOL  MW    5772   2.572   2.028   3.882
 1444SOL  OW    5773   2.649   2.276   0.189
 1444SOL  HW1   5774   2.651   2.356   0.136
 1444SOL  HW2   5775   2.628   2.306   0.277
 1444SOL  MW    5776   2.647   2.290   0.194
 1445SOL  OW    5777   2.581   2.306   0.489
 1445SOL  HW1   5778   2.619   2.384   0.528
 1445SOL  HW2   5779   2.621   2.300   0.402
 1445SOL  MW    5780   2.591   2.315   0.483
 1446SOL  OW    5781   2.581   2.269   0.731
 1446SOL  HW1   5782   2.500   2.314   0.755
 1446SOL  HW2   5783   2.640   2.284   0.805
 1446SOL  MW    5784   2.578   2.277   0.744
 1447SOL  OW    5785   2.616   2.333   1.047
 1447SOL  HW1   5786   2.617   2.357   0.954
 1447SOL  HW2   5787   2.695   2.374   1.083
 1447SOL  MW    5788   2.626   2.341   1.040
 1448SOL  OW    5789   2.585   2.313   1.363
 1448SOL  HW1   5790   2.537   2.380   1.413
 1448SOL  HW2   5791   2.518   2.265   1.315
 1448SOL  MW    5792   2.571   2.316   1.364
 1449SOL  OW    5793   2.634   2.344   1.714
 1449SOL  HW1   5794   2.648   2.249   1.705
 1449SOL  HW2   5795   2.687   2.369   1.789
 1449SOL  MW    5796   2.642   2.335   1.722
 1450SOL  OW    5797   2.646   2.309   2.027
 1450SOL  HW1   5798   2.734   2.342   2.041
 1450SOL  HW2   5799   2.601   2.322   2.111
 1450SOL  MW    5800   2.651   2.315   2.039
 1451SOL  OW    5801   2.590   2.273   2.320
 1451SOL  HW1   5802   2.499   2.251   2.338
 1451SOL  HW2   5803   2.631   2.190   2.296
 1451SOL  MW    5804   2.584   2.260   2.319
 1452SOL  OW    5805   2.580   2.339   2.631
 1452SOL  HW1   5806   2.632   2.274   2.677
 1452SOL  HW2   5807   2.509   2.362   2.692
 1452SOL  MW    5808   2.577   2.334   2.645
 1453SOL  OW    5809   2.652   2.293   2.922
 1453SOL  HW1   5810   2.601   2.249   2.991
 1453SOL  HW2   5811   2.596   2.288   2.844
 1453SOL  MW    5812   2.638   2.287   2.921
 1454SOL  OW    5813   2.635   2.287   3.234
 1454SOL  HW1   5814   2.657   2.238   3.313
 1454SOL  HW2   5815   2.650   2.379   3.258
 1454SOL  MW    5816   2.640   2.292   3.247
 1455SOL  OW    5817   2.628   2.346   3.558
 1455SOL  HW1   5818   2.588   2.270   3.600
 1455SOL  HW2   5819   2.606   2.420   3.615
 1455SOL  MW    5820   2.620   2.346   3.571
 1456SOL  OW    5821   2.585   2.306   3.853
 1456SOL  HW1   5822   2.495   2.275   3.864
 1456SOL  HW2   5823   2.637   2.226   3.856
 1456SOL  MW    5824   2.580   2.292   3.855
 1457SOL  OW    5825   2.587   2.610   0.137
 1457SOL  HW1   5826   2.609   2.520   0.161
 1457SOL  HW2   5827   2.558   2.603   0.046
 1457SOL  MW    5828   2.586   2.598   0.128
 1458SOL  OW    5829   2.585   2.616   0.435
 1458SOL  HW1   5830   2.499   2.574   0.441
 1458SOL  HW2   5831   2.646   2.553   0.473
 1458SOL  MW    5832   2.582   2.603   0.440
 1459SOL  OW    5833   2.623   2.589   0.787
 1459SOL  HW1   5834   2.714   2.601   0.763
 1459SOL  HW2   5835   2.617   2.497   0.815
 1459SOL  MW    5836   2.634   2.579   0.788
 1460SOL  OW    5837   2.591   2.647   1.039
 1460SOL  HW1   5838   2.616   2.733   1.004
 1460SOL  HW2   5839   2.496   2.653   1.051
 1460SOL  MW    5840   2.582   2.659   1.036
 1461SOL  OW    5841   2.617   2.601   1.363
 1461SOL  HW1   5842   2.573   2.644   1.436
 1461SOL  HW2   5843   2.618   2.508   1.386
 1461SOL  MW    5844   2.612   2.595   1.375
 1462SOL  OW    5845   2.613   2.643   1.726
 1462SOL  HW1   5846   2.630   2.737   1.720
 1462SOL  HW2   5847   2.530   2.630   1.679
 1462SOL  MW    5848   2.605   2.653   1.719
 1463SOL  OW    5849   2.600   2.588   2.018
 1463SOL  HW1   5850   2.647   2.511   1.986
 1463SOL  HW2   5851   2.667   2.643   2.057
 1463SOL  MW    5852   2.614   2.585   2.019
 1464SOL  OW    5853   2.622   2.591   2.329
 1464SOL  HW1   5854   2.667   2.671   2.357
 1464SOL  HW2   5855   2.666   2.567   2.247
 1464SOL  MW    5856   2.633   2.598   2.322
 1465SOL  OW    5857   2.617   2.628   2.604
 1465SOL  HW1   5858   2.642   2.624   2.696
 1465SOL  HW2   5859   2.673   2.563   2.561
 1465SOL  MW    5860   2.627   2.619   2.610
 1466SOL  OW    5861   2.611   2.590   2.944
 1466SOL  HW1   5862   2.559   2.639   3.007
 1466SOL  HW2   5863   2.668   2.534   2.997
 1466SOL  MW    5864   2.611   2.589   2.959
 1467SOL  OW    5865   2.588   2.638   3.255
 1467SOL  HW1   5866   2.530   2.589   3.195
 1467SOL  HW2   5867   2.576   2.595   3.340
 1467SOL  MW    5868   2.579   2.626   3.258
 1468SOL  OW    5869   2.635   2.577   3.520
 1468SOL  HW1   5870   2.593   2.566   3.435
 1468SOL  HW2   5871   2.644   2.672   3.531
 1468SOL  MW    5872   2.631   2.588   3.511
 1469SOL  OW    5873   2.613   2.623   3.880
 1469SOL  HW1   5874   2.587   2.602   3.790
 1469SOL  HW2   5875   2.540   2.592   3.934
 1469SOL  MW    5876   2.600   2.616   3.875
 1470SOL  OW    5877   2.605   2.953   0.127
 1470SOL  HW1   5878   2.557   3.035   0.134
 1470SOL  HW2   5879   2.636   2.936   0.216
 1470SOL  MW    5880   2.603   2.961   0.139
 1471SOL  OW    5881   2.605   2.887   0.481
 1471SOL  HW1   5882   2.689   2.858   0.516
 1471SOL  HW2   5883   2.540   2.842   0.535
 1471SOL  MW    5884   2.608   2.878   0.492
 1472SOL  OW    5885   2.587   2.904   0.791
 1472SOL  HW1   5886   2.602   2.876   0.701
 1472SOL  HW2   5887   2.497   2.935   0.793
 1472SOL  MW    5888   2.578   2.904   0.780
 1473SOL  OW    5889   2.618   2.884   1.037
 1473SOL  HW1   5890   2.553   2.863   0.971
 1473SOL  HW2   5891   2.595   2.972   1.066
 1473SOL  MW    5892   2.607   2.893   1.032
 1474SOL  OW    5893   2.616   2.907   1.359
 1474SOL  HW1   5894   2.614   3.003   1.353
 1474SOL  HW2   5895   2.585   2.888   1.447
 1474SOL  MW    5896   2.612   2.917   1.370
 1475SOL  OW    5897   2.624   2.901   1.700
 1475SOL  HW1   5898   2.689   2.847   1.745
 1475SOL  HW2   5899   2.596   2.965   1.766
 1475SOL  MW    5900   2.629   2.902   1.714
 1476SOL  OW    5901   2.606   2.898   1.971
 1476SOL  HW1   5902   2.549   2.961   2.016
 1476SOL  HW2   5903   2.650   2.949   1.904
 1476SOL  MW    5904   2.604   2.913   1.968
 1477SOL  OW    5905   2.594   2.885   2.292
 1477SOL  HW1   5906   2.518   2.843   2.254
 1477SOL  HW2   5907   2.564   2.974   2.314
 1477SOL  MW    5908   2.581   2.891   2.290
 1478SOL  OW    5909   2.648   2.950   2.605
 1478SOL  HW1   5910   2.649   2.940   2.700
 1478SOL  HW2   5911   2.624   2.863   2.573
 1478SOL  MW    5912   2.645   2.937   2.613
 1479SOL  OW    5913   2.621   2.928   2.949
 1479SOL  HW1   5914   2.661   2.884   2.874
 1479SOL  HW2   5915   2.550   2.980   2.912
 1479SOL  MW    5916   2.617   2.929   2.935
 1480SOL  OW    5917   2.594   2.907   3.215
 1480SOL  HW1   5918   2.648   2.887   3.292
 1480SOL  HW2   5919   2.543   2.983   3.240
 1480SOL  MW    5920   2.595   2.914   3.228
 1481SOL  OW    5921   2.579   2.908   3.569
 1481SOL  HW1   5922   2.607   2.836   3.625
 1481SOL  HW2   5923   2.566   2.982   3.629
 1481SOL  MW    5924   2.581   2.908   3.584
 1482SOL  OW    5925   2.648   2.892   3.843
 1482SOL  HW1   5926   2.569   2.922   3.886
 1482SOL  HW2   5927   2.678   2.818   3.896
 1482SOL  MW    5928   2.642   2.886   3.855
 1483SOL  OW    5929   2.606   3.230   0.158
 1483SOL  HW1   5930   2.582   3.304   0.103
 1483SOL  HW2   5931   2.662   3.268   0.226
 1483SOL  MW    5932   2.610   3.244   0.160
 1484SOL  OW    5933   2.577   3.258   0.499
 1484SOL  HW1   5934   2.565   3.231   0.408
 1484SOL  HW2   5935   2.564   3.178   0.550
 1484SOL  MW    5936   2.574   3.244   0.494
 1485SOL  OW    5937   2.628   3.244   0.771
 1485SOL  HW1   5938   2.693   3.285   0.715
 1485SOL  HW2   5939   2.674   3.228   0.854
 1485SOL  MW    5940   2.642   3.247   0.775
 1486SOL  OW    5941   2.602   3.203   1.084
 1486SOL  HW1   5942   2.521   3.188   1.133
 1486SOL  HW2   5943   2.607   3.129   1.023
 1486SOL  MW    5944   2.592   3.191   1.082
 1487SOL  OW    5945   2.579   3.257   1.378
 1487SOL  HW1   5946   2.662   3.208   1.374
 1487SOL  HW2   5947   2.576   3.307   1.297
 1487SOL  MW    5948   2.589   3.257   1.367
 1488SOL  OW    5949   2.609   3.217   1.730
 1488SOL  HW1   5950   2.537   3.191   1.788
 1488SOL  HW2   5951   2.597   3.162   1.652
 1488SOL  MW    5952   2.598   3.207   1.727
 1489SOL  OW    5953   2.589   3.203   1.973
 1489SOL  HW1   5954   2.499   3.212   2.002
 1489SOL  HW2   5955   2.584   3.200   1.878
 1489SOL  MW    5956   2.577   3.204   1.965
 1490SOL  OW    5957   2.628   3.270   2.287
 1490SOL  HW1   5958   2.543   3.236   2.259
 1490SOL  HW2   5959   2.688   3.245   2.216
 1490SOL  MW    5960   2.625   3.263   2.274
 1491SOL  OW    5961   2.648   3.213   2.627
 1491SOL  HW1   5962   2.619   3.299   2.658
 1491SOL  HW2   5963   2.631   3.214   2.533
 1491SOL  MW    5964   2.642   3.224   2.619
 1492SOL  OW    5965   2.579   3.230   2.935
 1492SOL  HW1   5966   2.630   3.283   2.874
 1492SOL  HW2   5967   2.636   3.158   2.960
 1492SOL  MW    5968   2.593   3.228   2.931
 1493SOL  OW    5969   2.618   3.210   3.257
 1493SOL  HW1   5970   2.698   3.246   3.296
 1493SOL  HW2   5971   2.587   3.279   3.199
 1493SOL  MW    5972   2.624   3.223   3.255
 1494SOL  OW    5973   2.653   3.228   3.549
 1494SOL  HW1   5974   2.705   3.220   3.469
 1494SOL  HW2   5975   2.584   3.162   3.540
 1494SOL  MW    5976   2.651   3.218   3.538
 1495SOL  OW    5977   2.639   3.210   3.875
 1495SOL  HW1   5978   2.618   3.165   3.957
 1495SOL  HW2   5979   2.702   3.277   3.900
 1495SOL  MW    5980   2.644   3.213   3.889
 1496SOL  OW    5981   2.598   3.561   0.123
 1496SOL  HW1   5982   2.635   3.518   0.200
 1496SOL  HW2   5983   2.619   3.502   0.050
 1496SOL  MW    5984   2.605   3.548   0.123
 1497SOL  OW    5985   2.598   3.541   0.464
 1497SOL  HW1   5986   2.520   3.569   0.416
 1497SOL  HW2   5987   2.565   3.511   0.548
 1497SOL  MW    5988   2.584   3.541   0.468
 1498SOL  OW    5989   2.643   3.578   0.738
 1498SOL  HW1   5990   2.656   3.543   0.826
 1498SOL  HW2   5991   2.731   3.576   0.699
 1498SOL  MW    5992   2.656   3.573   0.744
 1499SOL  OW    5993   2.597   3.527   1.075
 1499SOL  HW1   5994   2.533   3.457   1.066
 1499SOL  HW2   5995   2.661   3.494   1.138
 1499SOL  MW    5996   2.597   3.514   1.082
 1500SOL  OW    5997   2.615   3.567   1.406
 1500SOL  HW1   5998   2.521   3.578   1.392
 1500SOL  HW2   5999   2.623   3.478   1.441
 1500SOL  MW    6000   2.604   3.557   1.409
 1501SOL  OW    6001   2.577   3.535   1.702
 1501SOL  HW1   6002   2.608   3.479   1.773
 1501SOL  HW2   6003   2.655   3.582   1.672
 1501SOL  MW    6004   2.591   3.534   1.707
 1502SOL  OW    6005   2.612   3.509   1.992
 1502SOL  HW1   6006   2.689   3.499   2.048
 1502SOL  HW2   6007   2.559   3.431   2.010
 1502SOL  MW    6008   2.615   3.498   2.001
 1503SOL  OW    6009   2.608   3.513   2.328
 1503SOL  HW1   6010   2.584   3.604   2.311
 1503SOL  HW2   6011   2.557   3.462   2.265
 1503SOL  MW    6012   2.599   3.519   2.318
 1504SOL  OW    6013   2.601   3.546   2.617
 1504SOL  HW1   6014   2.592   3.587   2.531
 1504SOL  HW2   6015   2.557   3.461   2.608
 1504SOL  MW    6016   2.594   3.540   2.604
 1505SOL  OW    6017   2.646   3.508   2.892
 1505SOL  HW1   6018   2.625   3.478   2.981
 1505SOL  HW2   6019   2.615   3.599   2.890
 1505SOL  MW    6020   2.639   3.516   2.903
 1506SOL  OW    6021   2.599   3.533   3.215
 1506SOL  HW1   6022   2.520   3.579   3.241
 1506SOL  HW2   6023   2.568   3.451   3.176
 1506SOL  MW    6024   2.585   3.528   3.213
 1507SOL  OW    6025   2.636   3.518   3.505
 1507SOL  HW1   6026   2.727   3.496   3.483
 1507SOL  HW2   6027   2.633   3.614   3.501
 1507SOL  MW    6028   2.648   3.528   3.502
 1508SOL  OW    6029   2.608   3.560   3.874
 1508SOL  HW1   6030   2.605   3.495   3.804
 1508SOL  HW2   6031   2.685   3.535   3.927
 1508SOL  MW    6032   2.618   3.549   3.872
 1509SOL  OW    6033   2.634   3.851   0.172
 1509SOL  HW1   6034   2.684   3.932   0.175
 1509SOL  HW2   6035   2.585   3.857   0.090
 1509SOL  MW    6036   2.634   3.862   0.162
 1510SOL  OW    6037   2.630   3.825   0.466
 1510SOL  HW1   6038   2.597   3.912   0.444
 1510SOL  HW2   6039   2.702   3.841   0.527
 1510SOL  MW    6040   2.635   3.838   0.471
 1511SOL  OW    6041   2.637   3.832   0.782
 1511SOL  HW1   6042   2.560   3.851   0.835
 1511SOL  HW2   6043   2.680   3.916   0.769
 1511SOL  MW    6044   2.633   3.845   0.787
 1512SOL  OW    6045   2.614   3.846   1.044
 1512SOL  HW1   6046   2.548   3.786   1.078
 1512SOL  HW2   6047   2.649   3.802   0.967
 1512SOL  MW    6048   2.610   3.833   1.039
 1513SOL  OW    6049   2.629   3.875   1.356
 1513SOL  HW1   6050   2.604   3.899   1.266
 1513SOL  HW2   6051   2.718   3.841   1.348
 1513SOL  MW    6052   2.637   3.874   1.343
 1514SOL  OW    6053   2.605   3.810   1.655
 1514SOL  HW1   6054   2.689   3.837   1.691
 1514SOL  HW2   6055   2.626   3.777   1.567
 1514SOL  MW    6056   2.618   3.809   1.648
 1515SOL  OW    6057   2.655   3.846   1.988
 1515SOL  HW1   6058   2.712   3.769   1.995
 1515SOL  HW2   6059   2.582   3.826   2.048
 1515SOL  MW    6060   2.653   3.833   1.997
 1516SOL  OW    6061   2.597   3.885   2.288
 1516SOL  HW1   6062   2.529   3.925   2.341
 1516SOL  HW2   6063   2.614   3.800   2.330
 1516SOL  MW    6064   2.591   3.879   2.300
 1517SOL  OW    6065   2.633   3.829   2.581
 1517SOL  HW1   6066   2.694   3.773   2.629
 1517SOL  HW2   6067   2.669   3.832   2.492
 1517SOL  MW    6068   2.646   3.822   2.576
 1518SOL  OW    6069   2.630   3.806   2.937
 1518SOL  HW1   6070   2.547   3.775   2.900
 1518SOL  HW2   6071   2.676   3.845   2.863
 1518SOL  MW    6072   2.625   3.807   2.923
 1519SOL  OW    6073   2.595   3.866   3.252
 1519SOL  HW1   6074   2.515   3.823   3.223
 1519SOL  HW2   6075   2.605   3.941   3.193
 1519SOL  MW    6076   2.586   3.870   3.241
 1520SOL  OW    6077   2.633   3.808   3.555
 1520SOL  HW1   6078   2.691   3.814   3.631
 1520SOL  HW2   6079   2.644   3.718   3.523
 1520SOL  MW    6080   2.642   3.797   3.560
 1521SOL  OW    6081   2.655   3.826   3.828
 1521SOL  HW1   6082   2.662   3.821   3.733
 1521SOL  HW2   6083   2.726   3.771   3.860
 1521SOL  MW    6084   2.665   3.818   3.820
 1522SOL  OW    6085   2.948   0.127   0.167
 1522SOL  HW1   6086   2.951   0.192   0.097
 1522SOL  HW2   6087   2.987   0.048   0.128
 1522SOL  MW    6088   2.953   0.125   0.153
 1523SOL  OW    6089   2.943   0.117   0.466
 1523SOL  HW1   6090   2.873   0.056   0.487
 1523SOL  HW2   6091   2.950   0.113   0.370
 1523SOL  MW    6092   2.935   0.109   0.456
 1524SOL  OW    6093   2.929   0.138   0.799
 1524SOL  HW1   6094   2.947   0.131   0.893
 1524SOL  HW2   6095   3.009   0.106   0.757
 1524SOL  MW    6096   2.942   0.133   0.806
 1525SOL  OW    6097   2.896   0.143   1.105
 1525SOL  HW1   6098   2.808   0.106   1.113
 1525SOL  HW2   6099   2.947   0.100   1.173
 1525SOL  MW    6100   2.891   0.133   1.115
 1526SOL  OW    6101   2.898   0.180   1.351
 1526SOL  HW1   6102   2.893   0.084   1.348
 1526SOL  HW2   6103   2.908   0.200   1.444
 1526SOL  MW    6104   2.899   0.170   1.362
 1527SOL  OW    6105   2.922   0.120   1.707
 1527SOL  HW1   6106   2.949   0.146   1.619
 1527SOL  HW2   6107   2.837   0.079   1.694
 1527SOL  MW    6108   2.915   0.118   1.694
 1528SOL  OW    6109   2.946   0.182   2.039
 1528SOL  HW1   6110   2.870   0.225   2.077
 1528SOL  HW2   6111   2.978   0.123   2.107
 1528SOL  MW    6112   2.941   0.180   2.052
 1529SOL  OW    6113   2.937   0.175   2.308
 1529SOL  HW1   6114   2.957   0.224   2.228
 1529SOL  HW2   6115   2.911   0.243   2.371
 1529SOL  MW    6116   2.936   0.190   2.306
 1530SOL  OW    6117   2.956   0.165   2.646
 1530SOL  HW1   6118   2.945   0.123   2.731
 1530SOL  HW2   6119   2.912   0.107   2.584
 1530SOL  MW    6120   2.949   0.152   2.649
 1531SOL  OW    6121   2.902   0.154   2.941
 1531SOL  HW1   6122   2.959   0.089   2.900
 1531SOL  HW2   6123   2.857   0.105   3.011
 1531SOL  MW    6124   2.904   0.139   2.945
 1532SOL  OW    6125   2.899   0.131   3.269
 1532SOL  HW1   6126   2.985   0.112   3.230
 1532SOL  HW2   6127   2.860   0.045   3.284
 1532SOL  MW    6128   2.905   0.117   3.266
 1533SOL  OW    6129   2.918   0.128   3.525
 1533SOL  HW1   6130   2.963   0.211   3.542
 1533SOL  HW2   6131   2.872   0.143   3.442
 1533SOL  MW    6132   2.918   0.141   3.517
 1534SOL  OW    6133   2.915   0.164   3.880
 1534SOL  HW1   6134   2.942   0.132   3.794
 1534SOL  HW2   6135   2.928   0.258   3.876
 1534SOL  MW    6136   2.920   0.172   3.869
 1535SOL  OW    6137   2.962   0.474   0.170
 1535SOL  HW1   6138   2.972   0.564   0.141
 1535SOL  HW2   6139   2.891   0.477   0.234
 1535SOL  MW    6140   2.954   0.486   0.174
 1536SOL  OW    6141   2.909   0.490   0.439
 1536SOL  HW1   6142   2.956   0.408   0.450
 1536SOL  HW2   6143   2.871   0.484   0.351
 1536SOL  MW    6144   2.910   0.479   0.429
 1537SOL  OW    6145   2.892   0.499   0.798
 1537SOL  HW1   6146   2.952   0.509   0.872
 1537SOL  HW2   6147   2.891   0.405   0.780
 1537SOL  MW    6148   2.899   0.489   0.805
 1538SOL  OW    6149   2.907   0.476   1.074
 1538SOL  HW1   6150   2.812   0.465   1.076
 1538SOL  HW2   6151   2.924   0.530   0.997
 1538SOL  MW    6152   2.897   0.481   1.065
 1539SOL  OW    6153   2.909   0.444   1.355
 1539SOL  HW1   6154   2.936   0.374   1.297
 1539SOL  HW2   6155   2.982   0.454   1.416
 1539SOL  MW    6156   2.922   0.437   1.356
 1540SOL  OW    6157   2.927   0.457   1.693
 1540SOL  HW1   6158   2.904   0.509   1.616
 1540SOL  HW2   6159   2.877   0.376   1.684
 1540SOL  MW    6160   2.918   0.453   1.682
 1541SOL  OW    6161   2.900   0.497   2.011
 1541SOL  HW1   6162   2.843   0.421   2.023
 1541SOL  HW2   6163   2.850   0.556   1.955
 1541SOL  MW    6164   2.887   0.495   2.005
 1542SOL  OW    6165   2.955   0.430   2.318
 1542SOL  HW1   6166   2.982   0.482   2.241
 1542SOL  HW2   6167   2.985   0.341   2.298
 1542SOL  MW    6168   2.962   0.425   2.305
 1543SOL  OW    6169   2.951   0.448   2.591
 1543SOL  HW1   6170   2.988   0.499   2.519
 1543SOL  HW2   6171   2.996   0.481   2.669
 1543SOL  MW    6172   2.962   0.459   2.592
 1544SOL  OW    6173   2.904   0.443   2.919
 1544SOL  HW1   6174   2.891   0.523   2.970
 1544SOL  HW2   6175   2.999   0.441   2.903
 1544SOL  MW    6176   2.915   0.453   2.923
 1545SOL  OW    6177   2.909   0.443   3.243
 1545SOL  HW1   6178   2.920   0.538   3.240
 1545SOL  HW2   6179   2.907   0.417   3.151
 1545SOL  MW    6180   2.910   0.452   3.231
 1546SOL  OW    6181   2.887   0.449   3.554
 1546SOL  HW1   6182   2.976   0.437   3.519
 1546SOL  HW2   6183   2.901   0.489   3.640
 1546SOL  MW    6184   2.900   0.452   3.560
 1547SOL  OW    6185   2.897   0.439   3.822
 1547SOL  HW1   6186   2.870   0.364   3.769
 1547SOL  HW2   6187   2.868   0.515   3.772
 1547SOL  MW    6188   2.890   0.439   3.809
 1548SOL  OW    6189   2.883   0.767   0.117
 1548SOL  HW1   6190   2.910   0.677   0.098
 1548SOL  HW2   6191   2.886   0.773   0.212
 1548SOL  MW    6192   2.887   0.756   0.127
 1549SOL  OW    6193   2.905   0.809   0.495
 1549SOL  HW1   6194   2.875   0.848   0.413
 1549SOL  HW2   6195   2.871   0.867   0.563
 1549SOL  MW    6196   2.897   0.821   0.493
 1550SOL  OW    6197   2.900   0.754   0.766
 1550SOL  HW1   6198   2.912   0.733   0.674
 1550SOL  HW2   6199   2.808   0.780   0.774
 1550SOL  MW    6200   2.890   0.755   0.755
 1551SOL  OW    6201   2.951   0.793   1.047
 1551SOL  HW1   6202   2.938   0.720   0.987
 1551SOL  HW2   6203   3.019   0.764   1.107
 1551SOL  MW    6204   2.958   0.780   1.047
 1552SOL  OW    6205   2.893   0.763   1.414
 1552SOL  HW1   6206   2.838   0.729   1.485
 1552SOL  HW2   6207   2.843   0.745   1.335
 1552SOL  MW    6208   2.880   0.756   1.413
 1553SOL  OW    6209   2.954   0.738   1.698
 1553SOL  HW1   6210   3.031   0.777   1.657
 1553SOL  HW2   6211   2.883   0.800   1.681
 1553SOL  MW    6212   2.954   0.751   1.691
 1554SOL  OW    6213   2.896   0.784   2.033
 1554SOL  HW1   6214   2.892   0.791   2.129
 1554SOL  HW2   6215   2.921   0.871   2.004
 1554SOL  MW    6216   2.898   0.796   2.042
 1555SOL  OW    6217   2.919   0.736   2.314
 1555SOL  HW1   6218   2.998   0.786   2.335
 1555SOL  HW2   6219   2.952   0.650   2.287
 1555SOL  MW    6220   2.934   0.731   2.313
 1556SOL  OW    6221   2.916   0.794   2.603
 1556SOL  HW1   6222   2.963   0.712   2.591
 1556SOL  HW2   6223   2.979   0.862   2.580
 1556SOL  MW    6224   2.930   0.792   2.598
 1557SOL  OW    6225   2.953   0.751   2.896
 1557SOL  HW1   6226   3.010   0.813   2.851
 1557SOL  HW2   6227   3.011   0.703   2.955
 1557SOL  MW    6228   2.968   0.753   2.897
 1558SOL  OW    6229   2.908   0.732   3.213
 1558SOL  HW1   6230   2.822   0.776   3.214
 1558SOL  HW2   6231   2.964   0.790   3.162
 1558SOL  MW    6232   2.904   0.745   3.207
 1559SOL  OW    6233   2.936   0.741   3.507
 1559SOL  HW1   6234   2.966   0.674   3.446
 1559SOL  HW2   6235   2.993   0.731   3.583
 1559SOL  MW    6236   2.947   0.731   3.509
 1560SOL  OW    6237   2.894   0.735   3.876
 1560SOL  HW1   6238   2.891   0.641   3.893
 1560SOL  HW2   6239   2.925   0.743   3.786
 1560SOL  MW    6240   2.897   0.724   3.867
 1561SOL  OW    6241   2.959   1.041   0.175
 1561SOL  HW1   6242   2.910   1.042   0.257
 1561SOL  HW2   6243   3.049   1.059   0.199
 1561SOL  MW    6244   2.964   1.043   0.188
 1562SOL  OW    6245   2.942   1.117   0.449
 1562SOL  HW1   6246   3.016   1.069   0.486
 1562SOL  HW2   6247   2.911   1.061   0.378
 1562SOL  MW    6248   2.948   1.103   0.445
 1563SOL  OW    6249   2.906   1.073   0.798
 1563SOL  HW1   6250   2.938   1.005   0.857
 1563SOL  HW2   6251   2.956   1.061   0.717
 1563SOL  MW    6252   2.916   1.063   0.795
 1564SOL  OW    6253   2.941   1.075   1.056
 1564SOL  HW1   6254   2.909   0.985   1.068
 1564SOL  HW2   6255   3.036   1.068   1.070
 1564SOL  MW    6256   2.949   1.062   1.060
 1565SOL  OW    6257   2.941   1.105   1.377
 1565SOL  HW1   6258   2.921   1.109   1.470
 1565SOL  HW2   6259   2.999   1.030   1.368
 1565SOL  MW    6260   2.946   1.096   1.387
 1566SOL  OW    6261   2.937   1.069   1.691
 1566SOL  HW1   6262   2.869   1.082   1.757
 1566SOL  HW2   6263   2.990   0.998   1.726
 1566SOL  MW    6264   2.935   1.062   1.704
 1567SOL  OW    6265   2.925   1.099   2.038
 1567SOL  HW1   6266   2.923   1.050   2.120
 1567SOL  HW2   6267   3.013   1.136   2.034
 1567SOL  MW    6268   2.936   1.097   2.048
 1568SOL  OW    6269   2.919   1.064   2.298
 1568SOL  HW1   6270   2.929   0.970   2.309
 1568SOL  HW2   6271   3.008   1.099   2.299
 1568SOL  MW    6272   2.931   1.057   2.299
 1569SOL  OW    6273   2.894   1.061   2.582
 1569SOL  HW1   6274   2.864   0.972   2.562
 1569SOL  HW2   6275   2.840   1.088   2.656
 1569SOL  MW    6276   2.883   1.053   2.589
 1570SOL  OW    6277   2.917   1.050   2.911
 1570SOL  HW1   6278   2.869   1.131   2.927
 1570SOL  HW2   6279   2.854   0.980   2.928
 1570SOL  MW    6280   2.903   1.052   2.915
 1571SOL  OW    6281   2.947   1.057   3.240
 1571SOL  HW1   6282   2.984   0.974   3.269
 1571SOL  HW2   6283   2.905   1.093   3.318
 1571SOL  MW    6284   2.946   1.051   3.253
 1572SOL  OW    6285   2.955   1.082   3.514
 1572SOL  HW1   6286   2.909   1.080   3.598
 1572SOL  HW2   6287   2.887   1.067   3.448
 1572SOL  MW    6288   2.941   1.080   3.516
 1573SOL  OW    6289   2.911   1.084   3.847
 1573SOL  HW1   6290   2.858   1.016   3.805
 1573SOL  HW2   6291   2.946   1.135   3.774
 1573SOL  MW    6292   2.908   1.082   3.832
 1574SOL  OW    6293   2.895   1.380   0.157
 1574SOL  HW1   6294   2.988   1.392   0.140
 1574SOL  HW2   6295   2.867   1.464   0.195
 1574SOL  MW    6296   2.903   1.393   0.160
 1575SOL  OW    6297   2.904   1.394   0.427
 1575SOL  HW1   6298   2.995   1.363   0.427
 1575SOL  HW2   6299   2.878   1.392   0.335
 1575SOL  MW    6300   2.913   1.389   0.415
 1576SOL  OW    6301   2.910   1.409   0.750
 1576SOL  HW1   6302   2.881   1.355   0.676
 1576SOL  HW2   6303   2.962   1.479   0.710
 1576SOL  MW    6304   2.913   1.411   0.735
 1577SOL  OW    6305   2.931   1.377   1.062
 1577SOL  HW1   6306   3.006   1.338   1.107
 1577SOL  HW2   6307   2.969   1.415   0.983
 1577SOL  MW    6308   2.946   1.377   1.058
 1578SOL  OW    6309   2.956   1.372   1.364
 1578SOL  HW1   6310   2.912   1.366   1.448
 1578SOL  HW2   6311   2.995   1.460   1.363
 1578SOL  MW    6312   2.956   1.382   1.374
 1579SOL  OW    6313   2.956   1.404   1.707
 1579SOL  HW1   6314   2.955   1.490   1.749
 1579SOL  HW2   6315   3.047   1.377   1.710
 1579SOL  MW    6316   2.967   1.412   1.713
 1580SOL  OW    6317   2.887   1.355   2.011
 1580SOL  HW1   6318   2.801   1.375   2.047
 1580SOL  HW2   6319   2.934   1.314   2.083
 1580SOL  MW    6320   2.882   1.352   2.025
 1581SOL  OW    6321   2.900   1.363   2.330
 1581SOL  HW1   6322   2.820   1.318   2.358
 1581SOL  HW2   6323   2.949   1.296   2.282
 1581SOL  MW    6324   2.896   1.348   2.327
 1582SOL  OW    6325   2.906   1.350   2.578
 1582SOL  HW1   6326   2.965   1.280   2.552
 1582SOL  HW2   6327   2.874   1.387   2.496
 1582SOL  MW    6328   2.909   1.346   2.564
 1583SOL  OW    6329   2.919   1.394   2.953
 1583SOL  HW1   6330   2.911   1.453   3.028
 1583SOL  HW2   6331   2.942   1.451   2.879
 1583SOL  MW    6332   2.921   1.409   2.953
 1584SOL  OW    6333   2.892   1.360   3.233
 1584SOL  HW1   6334   2.861   1.450   3.248
 1584SOL  HW2   6335   2.864   1.339   3.144
 1584SOL  MW    6336   2.884   1.369   3.224
 1585SOL  OW    6337   2.912   1.383   3.572
 1585SOL  HW1   6338   2.941   1.293   3.588
 1585SOL  HW2   6339   2.985   1.437   3.603
 1585SOL  MW    6340   2.925   1.379   3.578
 1586SOL  OW    6341   2.927   1.378   3.885
 1586SOL  HW1   6342   2.875   1.450   3.849
 1586SOL  HW2   6343   2.924   1.310   3.818
 1586SOL  MW    6344   2.920   1.378   3.872
 1587SOL  OW    6345   2.888   1.727   0.154
 1587SOL  HW1   6346   2.811   1.682   0.118
 1587SOL  HW2   6347   2.954   1.720   0.085
 1587SOL  MW    6348   2.887   1.720   0.141
 1588SOL  OW    6349   2.923   1.726   0.462
 1588SOL  HW1   6350   2.866   1.655   0.433
 1588SOL  HW2   6351   3.002   1.717   0.408
 1588SOL  MW    6352   2.926   1.716   0.452
 1589SOL  OW    6353   2.918   1.674   0.782
 1589SOL  HW1   6354   3.005   1.697   0.749
 1589SOL  HW2   6355   2.929   1.587   0.819
 1589SOL  MW    6356   2.931   1.666   0.782
 1590SOL  OW    6357   2.929   1.669   1.094
 1590SOL  HW1   6358   2.923   1.707   1.006
 1590SOL  HW2   6359   3.003   1.609   1.089
 1590SOL  MW    6360   2.937   1.667   1.082
 1591SOL  OW    6361   2.935   1.684   1.345
 1591SOL  HW1   6362   2.956   1.662   1.436
 1591SOL  HW2   6363   2.932   1.780   1.344
 1591SOL  MW    6364   2.937   1.693   1.356
 1592SOL  OW    6365   2.919   1.653   1.658
 1592SOL  HW1   6366   2.912   1.610   1.743
 1592SOL  HW2   6367   2.881   1.739   1.672
 1592SOL  MW    6368   2.913   1.658   1.671
 1593SOL  OW    6369   2.918   1.659   1.982
 1593SOL  HW1   6370   2.856   1.608   1.930
 1593SOL  HW2   6371   2.872   1.675   2.065
 1593SOL  MW    6372   2.904   1.654   1.986
 1594SOL  OW    6373   2.936   1.677   2.348
 1594SOL  HW1   6374   3.018   1.692   2.394
 1594SOL  HW2   6375   2.955   1.607   2.285
 1594SOL  MW    6376   2.949   1.670   2.346
 1595SOL  OW    6377   2.956   1.699   2.653
 1595SOL  HW1   6378   3.010   1.629   2.616
 1595SOL  HW2   6379   2.889   1.714   2.587
 1595SOL  MW    6380   2.955   1.692   2.640
 1596SOL  OW    6381   2.953   1.678   2.943
 1596SOL  HW1   6382   2.881   1.686   2.880
 1596SOL  HW2   6383   2.960   1.584   2.959
 1596SOL  MW    6384   2.944   1.667   2.937
 1597SOL  OW    6385   2.894   1.707   3.230
 1597SOL  HW1   6386   2.922   1.741   3.315
 1597SOL  HW2   6387   2.975   1.699   3.180
 1597SOL  MW    6388   2.908   1.710   3.235
 1598SOL  OW    6389   2.884   1.674   3.575
 1598SOL  HW1   6390   2.935   1.717   3.644
 1598SOL  HW2   6391   2.864   1.745   3.513
 1598SOL  MW    6392   2.888   1.689   3.576
 1599SOL  OW    6393   2.908   1.667   3.821
 1599SOL  HW1   6394   2.897   1.646   3.728
 1599SOL  HW2   6395   3.001   1.688   3.830
 1599SOL  MW    6396   2.919   1.667   3.810
 1600SOL  OW    6397   2.921   2.027   0.174
 1600SOL  HW1   6398   2.972   1.954   0.209
 1600SOL  HW2   6399   2.964   2.049   0.091
 1600SOL  MW    6400   2.933   2.021   0.168
 1601SOL  OW    6401   2.918   1.977   0.425
 1601SOL  HW1   6402   2.995   1.996   0.479
 1601SOL  HW2   6403   2.872   2.060   0.419
 1601SOL  MW    6404   2.922   1.990   0.431
 1602SOL  OW    6405   2.920   2.025   0.788
 1602SOL  HW1   6406   2.891   1.943   0.749
 1602SOL  HW2   6407   2.870   2.032   0.869
 1602SOL  MW    6408   2.910   2.016   0.793
 1603SOL  OW    6409   2.916   2.008   1.072
 1603SOL  HW1   6410   2.866   1.941   1.023
 1603SOL  HW2   6411   2.884   2.091   1.038
 1603SOL  MW    6412   2.905   2.010   1.061
 1604SOL  OW    6413   2.929   2.001   1.399
 1604SOL  HW1   6414   2.891   1.953   1.472
 1604SOL  HW2   6415   2.855   2.023   1.343
 1604SOL  MW    6416   2.915   1.998   1.401
 1605SOL  OW    6417   2.924   2.035   1.687
 1605SOL  HW1   6418   2.936   1.955   1.737
 1605SOL  HW2   6419   3.012   2.062   1.663
 1605SOL  MW    6420   2.937   2.028   1.690
 1606SOL  OW    6421   2.884   1.979   2.000
 1606SOL  HW1   6422   2.869   2.071   1.979
 1606SOL  HW2   6423   2.798   1.938   1.991
 1606SOL  MW    6424   2.871   1.985   1.996
 1607SOL  OW    6425   2.926   2.004   2.325
 1607SOL  HW1   6426   3.013   2.041   2.310
 1607SOL  HW2   6427   2.918   1.935   2.259
 1607SOL  MW    6428   2.936   2.000   2.315
 1608SOL  OW    6429   2.905   2.013   2.632
 1608SOL  HW1   6430   2.880   1.923   2.614
 1608SOL  HW2   6431   2.824   2.054   2.663
 1608SOL  MW    6432   2.892   2.007   2.633
 1609SOL  OW    6433   2.916   1.992   2.897
 1609SOL  HW1   6434   2.865   2.068   2.925
 1609SOL  HW2   6435   2.869   1.917   2.933
 1609SOL  MW    6436   2.903   1.992   2.905
 1610SOL  OW    6437   2.916   2.023   3.263
 1610SOL  HW1   6438   2.825   1.998   3.280
 1610SOL  HW2   6439   2.957   2.026   3.350
 1610SOL  MW    6440   2.910   2.020   3.277
 1611SOL  OW    6441   2.931   1.984   3.553
 1611SOL  HW1   6442   2.999   1.986   3.620
 1611SOL  HW2   6443   2.931   1.894   3.521
 1611SOL  MW    6444   2.939   1.973   3.558
 1612SOL  OW    6445   2.942   1.987   3.872
 1612SOL  HW1   6446   3.013   1.934   3.835
 1612SOL  HW2   6447   2.922   1.943   3.955
 1612SOL  MW    6448   2.949   1.974   3.878
 1613SOL  OW    6449   2.889   2.269   0.124
 1613SOL  HW1   6450   2.910   2.323   0.048
 1613SOL  HW2   6451   2.919   2.181   0.100
 1613SOL  MW    6452   2.896   2.264   0.111
 1614SOL  OW    6453   2.896   2.338   0.456
 1614SOL  HW1   6454   2.851   2.360   0.374
 1614SOL  HW2   6455   2.972   2.287   0.428
 1614SOL  MW    6456   2.900   2.334   0.442
 1615SOL  OW    6457   2.905   2.302   0.761
 1615SOL  HW1   6458   2.815   2.328   0.744
 1615SOL  HW2   6459   2.900   2.209   0.781
 1615SOL  MW    6460   2.893   2.293   0.761
 1616SOL  OW    6461   2.907   2.279   1.089
 1616SOL  HW1   6462   2.915   2.286   0.994
 1616SOL  HW2   6463   2.985   2.323   1.123
 1616SOL  MW    6464   2.918   2.285   1.082
 1617SOL  OW    6465   2.894   2.330   1.361
 1617SOL  HW1   6466   2.821   2.291   1.410
 1617SOL  HW2   6467   2.878   2.304   1.270
 1617SOL  MW    6468   2.883   2.322   1.355
 1618SOL  OW    6469   2.942   2.332   1.662
 1618SOL  HW1   6470   3.035   2.328   1.642
 1618SOL  HW2   6471   2.899   2.342   1.577
 1618SOL  MW    6472   2.948   2.333   1.649
 1619SOL  OW    6473   2.890   2.344   1.997
 1619SOL  HW1   6474   2.888   2.339   2.093
 1619SOL  HW2   6475   2.907   2.254   1.969
 1619SOL  MW    6476   2.892   2.332   2.006
 1620SOL  OW    6477   2.933   2.270   2.290
 1620SOL  HW1   6478   2.860   2.256   2.231
 1620SOL  HW2   6479   2.899   2.326   2.359
 1620SOL  MW    6480   2.920   2.275   2.291
 1621SOL  OW    6481   2.924   2.339   2.597
 1621SOL  HW1   6482   2.969   2.258   2.620
 1621SOL  HW2   6483   2.850   2.310   2.543
 1621SOL  MW    6484   2.920   2.325   2.593
 1622SOL  OW    6485   2.945   2.321   2.892
 1622SOL  HW1   6486   2.857   2.308   2.858
 1622SOL  HW2   6487   3.000   2.333   2.815
 1622SOL  MW    6488   2.941   2.321   2.878
 1623SOL  OW    6489   2.907   2.287   3.226
 1623SOL  HW1   6490   2.989   2.280   3.274
 1623SOL  HW2   6491   2.847   2.227   3.271
 1623SOL  MW    6492   2.910   2.278   3.238
 1624SOL  OW    6493   2.934   2.302   3.518
 1624SOL  HW1   6494   2.979   2.349   3.448
 1624SOL  HW2   6495   2.894   2.372   3.570
 1624SOL  MW    6496   2.935   2.317   3.516
 1625SOL  OW    6497   2.939   2.314   3.848
 1625SOL  HW1   6498   3.033   2.331   3.841
 1625SOL  HW2   6499   2.920   2.317   3.942
 1625SOL  MW    6500   2.948   2.317   3.859
 1626SOL  OW    6501   2.927   2.593   0.168
 1626SOL  HW1   6502   2.915   2.639   0.085
 1626SOL  HW2   6503   2.986   2.650   0.218
 1626SOL  MW    6504   2.933   2.606   0.164
 1627SOL  OW    6505   2.914   2.604   0.434
 1627SOL  HW1   6506   2.842   2.642   0.484
 1627SOL  HW2   6507   2.871   2.561   0.359
 1627SOL  MW    6508   2.899   2.604   0.430
 1628SOL  OW    6509   2.931   2.624   0.756
 1628SOL  HW1   6510   3.013   2.589   0.721
 1628SOL  HW2   6511   2.864   2.596   0.694
 1628SOL  MW    6512   2.933   2.616   0.744
 1629SOL  OW    6513   2.952   2.643   1.046
 1629SOL  HW1   6514   2.999   2.649   0.962
 1629SOL  HW2   6515   2.918   2.554   1.048
 1629SOL  MW    6516   2.954   2.632   1.035
 1630SOL  OW    6517   2.939   2.607   1.425
 1630SOL  HW1   6518   2.847   2.635   1.427
 1630SOL  HW2   6519   2.949   2.554   1.503
 1630SOL  MW    6520   2.928   2.604   1.435
 1631SOL  OW    6521   2.901   2.598   1.688
 1631SOL  HW1   6522   2.929   2.604   1.596
 1631SOL  HW2   6523   2.819   2.647   1.691
 1631SOL  MW    6524   2.894   2.605   1.676
 1632SOL  OW    6525   2.905   2.631   1.998
 1632SOL  HW1   6526   2.949   2.713   1.979
 1632SOL  HW2   6527   2.975   2.570   2.022
 1632SOL  MW    6528   2.919   2.634   1.999
 1633SOL  OW    6529   2.901   2.616   2.339
 1633SOL  HW1   6530   2.890   2.614   2.244
 1633SOL  HW2   6531   2.840   2.550   2.371
 1633SOL  MW    6532   2.892   2.607   2.331
 1634SOL  OW    6533   2.946   2.615   2.598
 1634SOL  HW1   6534   3.025   2.636   2.547
 1634SOL  HW2   6535   2.891   2.565   2.539
 1634SOL  MW    6536   2.949   2.611   2.584
 1635SOL  OW    6537   2.897   2.646   2.940
 1635SOL  HW1   6538   2.901   2.587   3.016
 1635SOL  HW2   6539   2.988   2.652   2.910
 1635SOL  MW    6540   2.910   2.639   2.946
 1636SOL  OW    6541   2.929   2.646   3.201
 1636SOL  HW1   6542   2.858   2.610   3.254
 1636SOL  HW2   6543   3.002   2.656   3.261
 1636SOL  MW    6544   2.929   2.642   3.215
 1637SOL  OW    6545   2.938   2.593   3.508
 1637SOL  HW1   6546   3.033   2.593   3.501
 1637SOL  HW2   6547   2.915   2.685   3.520
 1637SOL  MW    6548   2.947   2.605   3.509
 1638SOL  OW    6549   2.920   2.606   3.881
 1638SOL  HW1   6550   2.877   2.684   3.846
 1638SOL  HW2   6551   2.985   2.641   3.943
 1638SOL  MW    6552   2.923   2.621   3.885
 1639SOL  OW    6553   2.909   2.948   0.174
 1639SOL  HW1   6554   2.940   3.039   0.174
 1639SOL  HW2   6555   2.989   2.895   0.170
 1639SOL  MW    6556   2.923   2.953   0.173
 1640SOL  OW    6557   2.937   2.957   0.454
 1640SOL  HW1   6558   2.866   2.912   0.501
 1640SOL  HW2   6559   2.924   2.933   0.362
 1640SOL  MW    6560   2.926   2.948   0.448
 1641SOL  OW    6561   2.914   2.896   0.751
 1641SOL  HW1   6562   2.968   2.846   0.813
 1641SOL  HW2   6563   2.859   2.830   0.709
 1641SOL  MW    6564   2.914   2.881   0.754
 1642SOL  OW    6565   2.953   2.921   1.064
 1642SOL  HW1   6566   3.000   3.001   1.041
 1642SOL  HW2   6567   3.018   2.852   1.053
 1642SOL  MW    6568   2.968   2.922   1.060
 1643SOL  OW    6569   2.900   2.922   1.402
 1643SOL  HW1   6570   2.976   2.922   1.343
 1643SOL  HW2   6571   2.866   3.011   1.397
 1643SOL  MW    6572   2.906   2.933   1.394
 1644SOL  OW    6573   2.906   2.944   1.703
 1644SOL  HW1   6574   2.852   2.950   1.624
 1644SOL  HW2   6575   2.990   2.981   1.677
 1644SOL  MW    6576   2.910   2.949   1.689
 1645SOL  OW    6577   2.946   2.903   2.010
 1645SOL  HW1   6578   2.975   2.812   2.013
 1645SOL  HW2   6579   2.924   2.924   2.101
 1645SOL  MW    6580   2.947   2.894   2.022
 1646SOL  OW    6581   2.895   2.912   2.326
 1646SOL  HW1   6582   2.944   2.840   2.285
 1646SOL  HW2   6583   2.895   2.891   2.419
 1646SOL  MW    6584   2.902   2.900   2.332
 1647SOL  OW    6585   2.934   2.898   2.644
 1647SOL  HW1   6586   2.843   2.898   2.676
 1647SOL  HW2   6587   2.954   2.991   2.630
 1647SOL  MW    6588   2.925   2.910   2.646
 1648SOL  OW    6589   2.887   2.931   2.962
 1648SOL  HW1   6590   2.954   2.924   3.030
 1648SOL  HW2   6591   2.859   2.841   2.947
 1648SOL  MW    6592   2.892   2.918   2.969
 1649SOL  OW    6593   2.926   2.947   3.238
 1649SOL  HW1   6594   2.986   2.983   3.303
 1649SOL  HW2   6595   2.982   2.905   3.173
 1649SOL  MW    6596   2.941   2.946   3.238
 1650SOL  OW    6597   2.946   2.936   3.554
 1650SOL  HW1   6598   2.873   2.874   3.540
 1650SOL  HW2   6599   2.928   2.974   3.640
 1650SOL  MW    6600   2.934   2.933   3.563
 1651SOL  OW    6601   2.901   2.942   3.825
 1651SOL  HW1   6602   2.958   2.909   3.755
 1651SOL  HW2   6603   2.881   2.865   3.878
 1651SOL  MW    6604   2.906   2.928   3.823
 1652SOL  OW    6605   2.962   3.209   0.133
 1652SOL  HW1   6606   3.056   3.206   0.119
 1652SOL  HW2   6607   2.949   3.282   0.193
 1652SOL  MW    6608   2.972   3.218   0.139
 1653SOL  OW    6609   2.952   3.210   0.450
 1653SOL  HW1   6610   2.997   3.189   0.369
 1653SOL  HW2   6611   2.993   3.292   0.480
 1653SOL  MW    6612   2.963   3.218   0.444
 1654SOL  OW    6613   2.940   3.203   0.742
 1654SOL  HW1   6614   2.944   3.110   0.760
 1654SOL  HW2   6615   2.997   3.243   0.808
 1654SOL  MW    6616   2.948   3.197   0.753
 1655SOL  OW    6617   2.922   3.210   1.056
 1655SOL  HW1   6618   2.896   3.135   1.109
 1655SOL  HW2   6619   3.017   3.204   1.051
 1655SOL  MW    6620   2.931   3.200   1.062
 1656SOL  OW    6621   2.884   3.220   1.370
 1656SOL  HW1   6622   2.967   3.181   1.395
 1656SOL  HW2   6623   2.844   3.247   1.453
 1656SOL  MW    6624   2.889   3.219   1.384
 1657SOL  OW    6625   2.886   3.240   1.702
 1657SOL  HW1   6626   2.915   3.328   1.729
 1657SOL  HW2   6627   2.810   3.223   1.758
 1657SOL  MW    6628   2.880   3.249   1.713
 1658SOL  OW    6629   2.889   3.216   2.030
 1658SOL  HW1   6630   2.879   3.311   2.042
 1658SOL  HW2   6631   2.932   3.207   1.945
 1658SOL  MW    6632   2.893   3.227   2.021
 1659SOL  OW    6633   2.930   3.224   2.305
 1659SOL  HW1   6634   2.958   3.268   2.225
 1659SOL  HW2   6635   2.949   3.286   2.375
 1659SOL  MW    6636   2.936   3.237   2.304
 1660SOL  OW    6637   2.900   3.256   2.649
 1660SOL  HW1   6638   2.890   3.334   2.595
 1660SOL  HW2   6639   2.951   3.285   2.724
 1660SOL  MW    6640   2.905   3.269   2.651
 1661SOL  OW    6641   2.956   3.209   2.908
 1661SOL  HW1   6642   3.016   3.167   2.846
 1661SOL  HW2   6643   2.891   3.141   2.928
 1661SOL  MW    6644   2.955   3.195   2.903
 1662SOL  OW    6645   2.896   3.215   3.217
 1662SOL  HW1   6646   2.802   3.222   3.200
 1662SOL  HW2   6647   2.934   3.189   3.134
 1662SOL  MW    6648   2.889   3.213   3.204
 1663SOL  OW    6649   2.934   3.206   3.572
 1663SOL  HW1   6650   2.983   3.124   3.567
 1663SOL  HW2   6651   2.993   3.267   3.616
 1663SOL  MW    6652   2.948   3.203   3.577
 1664SOL  OW    6653   2.891   3.191   3.875
 1664SOL  HW1   6654   2.930   3.205   3.961
 1664SOL  HW2   6655   2.856   3.277   3.850
 1664SOL  MW    6656   2.892   3.204   3.882
 1665SOL  OW    6657   2.939   3.527   0.161
 1665SOL  HW1   6658   2.917   3.614   0.195
 1665SOL  HW2   6659   3.015   3.499   0.213
 1665SOL  MW    6660   2.946   3.534   0.172
 1666SOL  OW    6661   2.901   3.512   0.459
 1666SOL  HW1   6662   2.835   3.443   0.467
 1666SOL  HW2   6663   2.871   3.565   0.386
 1666SOL  MW    6664   2.889   3.510   0.451
 1667SOL  OW    6665   2.911   3.548   0.747
 1667SOL  HW1   6666   2.980   3.536   0.812
 1667SOL  HW2   6667   2.954   3.530   0.663
 1667SOL  MW    6668   2.926   3.544   0.744
 1668SOL  OW    6669   2.936   3.560   1.050
 1668SOL  HW1   6670   2.858   3.564   1.106
 1668SOL  HW2   6671   2.950   3.466   1.035
 1668SOL  MW    6672   2.928   3.548   1.055
 1669SOL  OW    6673   2.887   3.534   1.407
 1669SOL  HW1   6674   2.957   3.469   1.404
 1669SOL  HW2   6675   2.929   3.616   1.382
 1669SOL  MW    6676   2.901   3.536   1.403
 1670SOL  OW    6677   2.935   3.555   1.685
 1670SOL  HW1   6678   2.942   3.508   1.601
 1670SOL  HW2   6679   2.863   3.616   1.672
 1670SOL  MW    6680   2.927   3.557   1.672
 1671SOL  OW    6681   2.902   3.541   1.976
 1671SOL  HW1   6682   2.990   3.560   1.946
 1671SOL  HW2   6683   2.887   3.450   1.951
 1671SOL  MW    6684   2.911   3.532   1.969
 1672SOL  OW    6685   2.941   3.514   2.291
 1672SOL  HW1   6686   2.913   3.473   2.209
 1672SOL  HW2   6687   3.035   3.530   2.279
 1672SOL  MW    6688   2.950   3.511   2.279
 1673SOL  OW    6689   2.924   3.537   2.623
 1673SOL  HW1   6690   2.886   3.612   2.577
 1673SOL  HW2   6691   3.003   3.516   2.575
 1673SOL  MW    6692   2.929   3.544   2.611
 1674SOL  OW    6693   2.918   3.572   2.950
 1674SOL  HW1   6694   2.952   3.528   3.028
 1674SOL  HW2   6695   2.940   3.513   2.878
 1674SOL  MW    6696   2.925   3.559   2.951
 1675SOL  OW    6697   2.953   3.549   3.242
 1675SOL  HW1   6698   2.963   3.503   3.325
 1675SOL  HW2   6699   2.863   3.580   3.242
 1675SOL  MW    6700   2.943   3.547   3.252
 1676SOL  OW    6701   2.932   3.533   3.524
 1676SOL  HW1   6702   3.021   3.567   3.535
 1676SOL  HW2   6703   2.914   3.542   3.431
 1676SOL  MW    6704   2.941   3.539   3.514
 1677SOL  OW    6705   2.930   3.501   3.807
 1677SOL  HW1   6706   2.940   3.457   3.892
 1677SOL  HW2   6707   3.017   3.537   3.789
 1677SOL  MW    6708   2.943   3.500   3.815
 1678SOL  OW    6709   2.951   3.810   0.156
 1678SOL  HW1   6710   2.920   3.889   0.112
 1678SOL  HW2   6711   2.985   3.840   0.240
 1678SOL  MW    6712   2.952   3.824   0.161
 1679SOL  OW    6713   2.932   3.822   0.493
 1679SOL  HW1   6714   2.948   3.906   0.451
 1679SOL  HW2   6715   3.007   3.768   0.467
 1679SOL  MW    6716   2.944   3.826   0.484
 1680SOL  OW    6717   2.898   3.877   0.790
 1680SOL  HW1   6718   2.983   3.880   0.746
 1680SOL  HW2   6719   2.913   3.920   0.874
 1680SOL  MW    6720   2.911   3.883   0.795
 1681SOL  OW    6721   2.902   3.818   1.062
 1681SOL  HW1   6722   2.848   3.895   1.080
 1681SOL  HW2   6723   2.948   3.840   0.981
 1681SOL  MW    6724   2.901   3.831   1.054
 1682SOL  OW    6725   2.915   3.826   1.425
 1682SOL  HW1   6726   2.909   3.887   1.351
 1682SOL  HW2   6727   2.931   3.882   1.501
 1682SOL  MW    6728   2.916   3.841   1.425
 1683SOL  OW    6729   2.901   3.873   1.665
 1683SOL  HW1   6730   2.840   3.812   1.706
 1683SOL  HW2   6731   2.899   3.950   1.721
 1683SOL  MW    6732   2.893   3.875   1.677
 1684SOL  OW    6733   2.961   3.824   1.994
 1684SOL  HW1   6734   2.904   3.896   1.967
 1684SOL  HW2   6735   2.958   3.761   1.922
 1684SOL  MW    6736   2.954   3.825   1.981
 1685SOL  OW    6737   2.928   3.816   2.333
 1685SOL  HW1   6738   2.875   3.831   2.411
 1685SOL  HW2   6739   2.908   3.890   2.276
 1685SOL  MW    6740   2.918   3.827   2.336
 1686SOL  OW    6741   2.905   3.850   2.619
 1686SOL  HW1   6742   2.902   3.935   2.663
 1686SOL  HW2   6743   2.852   3.862   2.541
 1686SOL  MW    6744   2.898   3.863   2.615
 1687SOL  OW    6745   2.931   3.811   2.897
 1687SOL  HW1   6746   2.845   3.847   2.875
 1687SOL  HW2   6747   2.917   3.716   2.900
 1687SOL  MW    6748   2.918   3.803   2.894
 1688SOL  OW    6749   2.896   3.830   3.202
 1688SOL  HW1   6750   2.861   3.869   3.283
 1688SOL  HW2   6751   2.886   3.899   3.137
 1688SOL  MW    6752   2.890   3.844   3.204
 1689SOL  OW    6753   2.957   3.847   3.548
 1689SOL  HW1   6754   2.971   3.900   3.470
 1689SOL  HW2   6755   2.878   3.884   3.588
 1689SOL  MW    6756   2.949   3.859   3.543
 1690SOL  OW    6757   2.912   3.828   3.846
 1690SOL  HW1   6758   2.984   3.786   3.893
 1690SOL  HW2   6759   2.854   3.860   3.916
 1690SOL  MW    6760   2.913   3.827   3.861
 1691SOL  OW    6761   3.214   0.141   0.150
 1691SOL  HW1   6762   3.301   0.176   0.172
 1691SOL  HW2   6763   3.181   0.200   0.082
 1691SOL  MW    6764   3.221   0.153   0.144
 1692SOL  OW    6765   3.231   0.193   0.439
 1692SOL  HW1   6766   3.158   0.229   0.389
 1692SOL  HW2   6767   3.195   0.176   0.526
 1692SOL  MW    6768   3.217   0.195   0.444
 1693SOL  OW    6769   3.230   0.126   0.757
 1693SOL  HW1   6770   3.168   0.109   0.686
 1693SOL  HW2   6771   3.217   0.053   0.818
 1693SOL  MW    6772   3.220   0.114   0.756
 1694SOL  OW    6773   3.248   0.128   1.083
 1694SOL  HW1   6774   3.337   0.150   1.111
 1694SOL  HW2   6775   3.200   0.210   1.088
 1694SOL  MW    6776   3.253   0.141   1.088
 1695SOL  OW    6777   3.224   0.118   1.419
 1695SOL  HW1   6778   3.146   0.088   1.372
 1695SOL  HW2   6779   3.285   0.145   1.351
 1695SOL  MW    6780   3.222   0.118   1.404
 1696SOL  OW    6781   3.224   0.177   1.686
 1696SOL  HW1   6782   3.274   0.113   1.736
 1696SOL  HW2   6783   3.225   0.256   1.739
 1696SOL  MW    6784   3.230   0.179   1.699
 1697SOL  OW    6785   3.266   0.137   1.993
 1697SOL  HW1   6786   3.360   0.123   2.004
 1697SOL  HW2   6787   3.258   0.226   1.960
 1697SOL  MW    6788   3.277   0.147   1.990
 1698SOL  OW    6789   3.251   0.141   2.297
 1698SOL  HW1   6790   3.221   0.056   2.327
 1698SOL  HW2   6791   3.249   0.197   2.375
 1698SOL  MW    6792   3.247   0.137   2.311
 1699SOL  OW    6793   3.270   0.158   2.631
 1699SOL  HW1   6794   3.188   0.116   2.655
 1699SOL  HW2   6795   3.274   0.150   2.535
 1699SOL  MW    6796   3.260   0.152   2.622
 1700SOL  OW    6797   3.242   0.180   2.952
 1700SOL  HW1   6798   3.205   0.195   3.039
 1700SOL  HW2   6799   3.216   0.257   2.902
 1700SOL  MW    6800   3.234   0.192   2.957
 1701SOL  OW    6801   3.236   0.137   3.193
 1701SOL  HW1   6802   3.144   0.146   3.218
 1701SOL  HW2   6803   3.234   0.131   3.097
 1701SOL  MW    6804   3.224   0.138   3.184
 1702SOL  OW    6805   3.240   0.180   3.535
 1702SOL  HW1   6806   3.331   0.205   3.521
 1702SOL  HW2   6807   3.228   0.184   3.629
 1702SOL  MW    6808   3.250   0.184   3.545
 1703SOL  OW    6809   3.204   0.137   3.847
 1703SOL  HW1   6810   3.158   0.219   3.831
 1703SOL  HW2   6811   3.232   0.143   3.938
 1703SOL  MW    6812   3.202   0.148   3.857
 1704SOL  OW    6813   3.258   0.435   0.163
 1704SOL  HW1   6814   3.247   0.454   0.256
 1704SOL  HW2   6815   3.331   0.491   0.136
 1704SOL  MW    6816   3.266   0.445   0.171
 1705SOL  OW    6817   3.251   0.496   0.431
 1705SOL  HW1   6818   3.318   0.561   0.408
 1705SOL  HW2   6819   3.183   0.507   0.364
 1705SOL  MW    6820   3.251   0.506   0.419
 1706SOL  OW    6821   3.265   0.470   0.791
 1706SOL  HW1   6822   3.332   0.525   0.751
 1706SOL  HW2   6823   3.190   0.477   0.732
 1706SOL  MW    6824   3.264   0.478   0.778
 1707SOL  OW    6825   3.195   0.462   1.087
 1707SOL  HW1   6826   3.112   0.434   1.125
 1707SOL  HW2   6827   3.185   0.557   1.075
 1707SOL  MW    6828   3.183   0.470   1.090
 1708SOL  OW    6829   3.215   0.456   1.389
 1708SOL  HW1   6830   3.271   0.449   1.311
 1708SOL  HW2   6831   3.223   0.371   1.432
 1708SOL  MW    6832   3.223   0.444   1.384
 1709SOL  OW    6833   3.235   0.425   1.687
 1709SOL  HW1   6834   3.206   0.418   1.596
 1709SOL  HW2   6835   3.185   0.358   1.734
 1709SOL  MW    6836   3.225   0.415   1.682
 1710SOL  OW    6837   3.208   0.495   2.038
 1710SOL  HW1   6838   3.165   0.443   2.106
 1710SOL  HW2   6839   3.237   0.574   2.084
 1710SOL  MW    6840   3.206   0.498   2.053
 1711SOL  OW    6841   3.215   0.436   2.285
 1711SOL  HW1   6842   3.227   0.486   2.366
 1711SOL  HW2   6843   3.168   0.495   2.227
 1711SOL  MW    6844   3.210   0.450   2.288
 1712SOL  OW    6845   3.229   0.491   2.615
 1712SOL  HW1   6846   3.173   0.427   2.573
 1712SOL  HW2   6847   3.300   0.506   2.553
 1712SOL  MW    6848   3.231   0.485   2.602
 1713SOL  OW    6849   3.195   0.425   2.901
 1713SOL  HW1   6850   3.159   0.404   2.988
 1713SOL  HW2   6851   3.131   0.483   2.862
 1713SOL  MW    6852   3.182   0.430   2.907
 1714SOL  OW    6853   3.258   0.471   3.236
 1714SOL  HW1   6854   3.264   0.381   3.205
 1714SOL  HW2   6855   3.164   0.490   3.238
 1714SOL  MW    6856   3.247   0.462   3.232
 1715SOL  OW    6857   3.216   0.496   3.525
 1715SOL  HW1   6858   3.311   0.486   3.534
 1715SOL  HW2   6859   3.180   0.441   3.595
 1715SOL  MW    6860   3.224   0.488   3.535
 1716SOL  OW    6861   3.258   0.493   3.845
 1716SOL  HW1   6862   3.227   0.532   3.927
 1716SOL  HW2   6863   3.206   0.413   3.835
 1716SOL  MW    6864   3.247   0.488   3.854
 1717SOL  OW    6865   3.262   0.751   0.167
 1717SOL  HW1   6866   3.227   0.829   0.210
 1717SOL  HW2   6867   3.185   0.700   0.142
 1717SOL  MW    6868   3.248   0.755   0.169
 1718SOL  OW    6869   3.198   0.767   0.439
 1718SOL  HW1   6870   3.130   0.700   0.450
 1718SOL  HW2   6871   3.261   0.728   0.379
 1718SOL  MW    6872   3.197   0.754   0.433
 1719SOL  OW    6873   3.196   0.730   0.755
 1719SOL  HW1   6874   3.186   0.640   0.787
 1719SOL  HW2   6875   3.145   0.732   0.674
 1719SOL  MW    6876   3.188   0.718   0.749
 1720SOL  OW    6877   3.238   0.766   1.061
 1720SOL  HW1   6878   3.295   0.840   1.042
 1720SOL  HW2   6879   3.274   0.728   1.141
 1720SOL  MW    6880   3.250   0.770   1.069
 1721SOL  OW    6881   3.270   0.804   1.355
 1721SOL  HW1   6882   3.261   0.710   1.339
 1721SOL  HW2   6883   3.354   0.813   1.399
 1721SOL  MW    6884   3.280   0.793   1.358
 1722SOL  OW    6885   3.224   0.781   1.711
 1722SOL  HW1   6886   3.134   0.747   1.713
 1722SOL  HW2   6887   3.217   0.869   1.749
 1722SOL  MW    6888   3.212   0.788   1.716
 1723SOL  OW    6889   3.220   0.789   1.970
 1723SOL  HW1   6890   3.290   0.757   1.913
 1723SOL  HW2   6891   3.239   0.882   1.980
 1723SOL  MW    6892   3.231   0.797   1.964
 1724SOL  OW    6893   3.217   0.787   2.318
 1724SOL  HW1   6894   3.181   0.870   2.347
 1724SOL  HW2   6895   3.304   0.808   2.283
 1724SOL  MW    6896   3.224   0.800   2.317
 1725SOL  OW    6897   3.258   0.733   2.589
 1725SOL  HW1   6898   3.300   0.787   2.656
 1725SOL  HW2   6899   3.262   0.644   2.625
 1725SOL  MW    6900   3.264   0.729   2.602
 1726SOL  OW    6901   3.195   0.745   2.883
 1726SOL  HW1   6902   3.105   0.744   2.918
 1726SOL  HW2   6903   3.230   0.830   2.908
 1726SOL  MW    6904   3.188   0.755   2.891
 1727SOL  OW    6905   3.231   0.771   3.243
 1727SOL  HW1   6906   3.273   0.687   3.226
 1727SOL  HW2   6907   3.301   0.836   3.232
 1727SOL  MW    6908   3.245   0.769   3.240
 1728SOL  OW    6909   3.222   0.729   3.552
 1728SOL  HW1   6910   3.244   0.757   3.641
 1728SOL  HW2   6911   3.293   0.763   3.498
 1728SOL  MW    6912   3.234   0.737   3.557
 1729SOL  OW    6913   3.195   0.799   3.808
 1729SOL  HW1   6914   3.164   0.726   3.755
 1729SOL  HW2   6915   3.228   0.862   3.745
 1729SOL  MW    6916   3.195   0.797   3.793
 1730SOL  OW    6917   3.233   1.109   0.160
 1730SOL  HW1   6918   3.192   1.169   0.221
 1730SOL  HW2   6919   3.314   1.082   0.203
 1730SOL  MW    6920   3.238   1.113   0.173
 1731SOL  OW    6921   3.239   1.091   0.431
 1731SOL  HW1   6922   3.250   1.164   0.369
 1731SOL  HW2   6923   3.207   1.133   0.511
 1731SOL  MW    6924   3.237   1.106   0.434
 1732SOL  OW    6925   3.245   1.107   0.807
 1732SOL  HW1   6926   3.312   1.118   0.740
 1732SOL  HW2   6927   3.162   1.110   0.760
 1732SOL  MW    6928   3.243   1.109   0.792
 1733SOL  OW    6929   3.226   1.064   1.097
 1733SOL  HW1   6930   3.223   1.095   1.188
 1733SOL  HW2   6931   3.317   1.077   1.070
 1733SOL  MW    6932   3.238   1.070   1.105
 1734SOL  OW    6933   3.234   1.058   1.358
 1734SOL  HW1   6934   3.173   1.115   1.313
 1734SOL  HW2   6935   3.185   1.024   1.433
 1734SOL  MW    6936   3.220   1.061   1.362
 1735SOL  OW    6937   3.204   1.074   1.666
 1735SOL  HW1   6938   3.274   1.032   1.615
 1735SOL  HW2   6939   3.234   1.066   1.757
 1735SOL  MW    6940   3.217   1.067   1.671
 1736SOL  OW    6941   3.192   1.041   2.034
 1736SOL  HW1   6942   3.160   1.120   2.078
 1736SOL  HW2   6943   3.232   1.073   1.954
 1736SOL  MW    6944   3.193   1.055   2.030
 1737SOL  OW    6945   3.197   1.043   2.304
 1737SOL  HW1   6946   3.240   0.988   2.369
 1737SOL  HW2   6947   3.250   1.122   2.300
 1737SOL  MW    6948   3.209   1.046   2.312
 1738SOL  OW    6949   3.210   1.114   2.648
 1738SOL  HW1   6950   3.141   1.172   2.617
 1738SOL  HW2   6951   3.182   1.086   2.735
 1738SOL  MW    6952   3.198   1.118   2.655
 1739SOL  OW    6953   3.223   1.073   2.913
 1739SOL  HW1   6954   3.206   1.167   2.918
 1739SOL  HW2   6955   3.139   1.032   2.935
 1739SOL  MW    6956   3.210   1.080   2.916
 1740SOL  OW    6957   3.194   1.060   3.201
 1740SOL  HW1   6958   3.269   1.113   3.228
 1740SOL  HW2   6959   3.199   0.980   3.253
 1740SOL  MW    6960   3.204   1.057   3.211
 1741SOL  OW    6961   3.199   1.082   3.506
 1741SOL  HW1   6962   3.131   1.127   3.557
 1741SOL  HW2   6963   3.279   1.094   3.558
 1741SOL  MW    6964   3.201   1.089   3.519
 1742SOL  OW    6965   3.199   1.075   3.842
 1742SOL  HW1   6966   3.253   1.150   3.815
 1742SOL  HW2   6967   3.155   1.105   3.921
 1742SOL  MW    6968   3.200   1.089   3.848
 1743SOL  OW    6969   3.202   1.345   0.129
 1743SOL  HW1   6970   3.240   1.269   0.085
 1743SOL  HW2   6971   3.213   1.417   0.067
 1743SOL  MW    6972   3.208   1.344   0.116
 1744SOL  OW    6973   3.210   1.409   0.495
 1744SOL  HW1   6974   3.185   1.386   0.405
 1744SOL  HW2   6975   3.127   1.406   0.544
 1744SOL  MW    6976   3.196   1.405   0.490
 1745SOL  OW    6977   3.223   1.377   0.786
 1745SOL  HW1   6978   3.212   1.405   0.877
 1745SOL  HW2   6979   3.145   1.410   0.741
 1745SOL  MW    6980   3.212   1.385   0.792
 1746SOL  OW    6981   3.241   1.359   1.046
 1746SOL  HW1   6982   3.257   1.451   1.067
 1746SOL  HW2   6983   3.242   1.356   0.950
 1746SOL  MW    6984   3.243   1.371   1.036
 1747SOL  OW    6985   3.226   1.390   1.356
 1747SOL  HW1   6986   3.292   1.321   1.361
 1747SOL  HW2   6987   3.202   1.393   1.263
 1747SOL  MW    6988   3.231   1.381   1.345
 1748SOL  OW    6989   3.214   1.369   1.673
 1748SOL  HW1   6990   3.189   1.432   1.741
 1748SOL  HW2   6991   3.183   1.408   1.592
 1748SOL  MW    6992   3.207   1.382   1.671
 1749SOL  OW    6993   3.228   1.397   2.001
 1749SOL  HW1   6994   3.225   1.307   1.969
 1749SOL  HW2   6995   3.141   1.412   2.039
 1749SOL  MW    6996   3.216   1.387   2.002
 1750SOL  OW    6997   3.207   1.353   2.333
 1750SOL  HW1   6998   3.182   1.289   2.267
 1750SOL  HW2   6999   3.210   1.436   2.286
 1750SOL  MW    7000   3.204   1.355   2.319
 1751SOL  OW    7001   3.229   1.350   2.596
 1751SOL  HW1   7002   3.135   1.369   2.596
 1751SOL  HW2   7003   3.235   1.259   2.628
 1751SOL  MW    7004   3.218   1.341   2.600
 1752SOL  OW    7005   3.255   1.405   2.953
 1752SOL  HW1   7006   3.263   1.461   2.876
 1752SOL  HW2   7007   3.282   1.461   3.026
 1752SOL  MW    7008   3.259   1.419   2.953
 1753SOL  OW    7009   3.239   1.378   3.225
 1753SOL  HW1   7010   3.163   1.435   3.208
 1753SOL  HW2   7011   3.307   1.411   3.166
 1753SOL  MW    7012   3.238   1.390   3.215
 1754SOL  OW    7013   3.206   1.397   3.545
 1754SOL  HW1   7014   3.226   1.305   3.565
 1754SOL  HW2   7015   3.259   1.417   3.468
 1754SOL  MW    7016   3.216   1.388   3.538
 1755SOL  OW    7017   3.203   1.415   3.836
 1755SOL  HW1   7018   3.124   1.369   3.864
 1755SOL  HW2   7019   3.219   1.384   3.747
 1755SOL  MW    7020   3.195   1.405   3.828
 1756SOL  OW    7021   3.195   1.679   0.183
 1756SOL  HW1   7022   3.247   1.613   0.138
 1756SOL  HW2   7023   3.257   1.725   0.239
 1756SOL  MW    7024   3.209   1.676   0.185
 1757SOL  OW    7025   3.264   1.692   0.498
 1757SOL  HW1   7026   3.185   1.703   0.550
 1757SOL  HW2   7027   3.334   1.729   0.552
 1757SOL  MW    7028   3.263   1.698   0.512
 1758SOL  OW    7029   3.261   1.718   0.798
 1758SOL  HW1   7030   3.224   1.755   0.878
 1758SOL  HW2   7031   3.218   1.633   0.789
 1758SOL  MW    7032   3.251   1.712   0.807
 1759SOL  OW    7033   3.221   1.713   1.083
 1759SOL  HW1   7034   3.191   1.735   0.995
 1759SOL  HW2   7035   3.198   1.789   1.136
 1759SOL  MW    7036   3.214   1.725   1.079
 1760SOL  OW    7037   3.248   1.667   1.403
 1760SOL  HW1   7038   3.335   1.704   1.385
 1760SOL  HW2   7039   3.247   1.584   1.355
 1760SOL  MW    7040   3.259   1.661   1.395
 1761SOL  OW    7041   3.267   1.677   1.731
 1761SOL  HW1   7042   3.175   1.670   1.755
 1761SOL  HW2   7043   3.291   1.767   1.752
 1761SOL  MW    7044   3.259   1.687   1.737
 1762SOL  OW    7045   3.221   1.668   1.969
 1762SOL  HW1   7046   3.199   1.706   1.884
 1762SOL  HW2   7047   3.236   1.744   2.025
 1762SOL  MW    7048   3.220   1.683   1.965
 1763SOL  OW    7049   3.254   1.697   2.292
 1763SOL  HW1   7050   3.195   1.704   2.217
 1763SOL  HW2   7051   3.324   1.640   2.262
 1763SOL  MW    7052   3.255   1.690   2.279
 1764SOL  OW    7053   3.239   1.679   2.611
 1764SOL  HW1   7054   3.254   1.773   2.619
 1764SOL  HW2   7055   3.177   1.658   2.681
 1764SOL  MW    7056   3.233   1.688   2.621
 1765SOL  OW    7057   3.260   1.706   2.944
 1765SOL  HW1   7058   3.180   1.657   2.964
 1765SOL  HW2   7059   3.306   1.651   2.880
 1765SOL  MW    7060   3.255   1.693   2.939
 1766SOL  OW    7061   3.237   1.732   3.210
 1766SOL  HW1   7062   3.262   1.749   3.119
 1766SOL  HW2   7063   3.203   1.642   3.209
 1766SOL  MW    7064   3.236   1.722   3.198
 1767SOL  OW    7065   3.212   1.660   3.543
 1767SOL  HW1   7066   3.259   1.603   3.603
 1767SOL  HW2   7067   3.173   1.600   3.479
 1767SOL  MW    7068   3.213   1.645   3.542
 1768SOL  OW    7069   3.240   1.710   3.833
 1768SOL  HW1   7070   3.158   1.698   3.880
 1768SOL  HW2   7071   3.267   1.799   3.855
 1768SOL  MW    7072   3.233   1.720   3.842
 1769SOL  OW    7073   3.192   2.011   0.194
 1769SOL  HW1   7074   3.258   1.967   0.247
 1769SOL  HW2   7075   3.220   1.997   0.104
 1769SOL  MW    7076   3.204   2.003   0.189
 1770SOL  OW    7077   3.214   1.975   0.444
 1770SOL  HW1   7078   3.159   2.004   0.516
 1770SOL  HW2   7079   3.304   1.983   0.478
 1770SOL  MW    7080   3.219   1.979   0.458
 1771SOL  OW    7081   3.225   1.980   0.757
 1771SOL  HW1   7082   3.268   2.031   0.826
 1771SOL  HW2   7083   3.236   2.033   0.678
 1771SOL  MW    7084   3.232   1.993   0.756
 1772SOL  OW    7085   3.242   1.988   1.069
 1772SOL  HW1   7086   3.325   1.946   1.048
 1772SOL  HW2   7087   3.262   2.048   1.140
 1772SOL  MW    7088   3.255   1.990   1.075
 1773SOL  OW    7089   3.194   2.033   1.377
 1773SOL  HW1   7090   3.126   2.069   1.320
 1773SOL  HW2   7091   3.155   1.953   1.412
 1773SOL  MW    7092   3.180   2.028   1.374
 1774SOL  OW    7093   3.217   1.967   1.703
 1774SOL  HW1   7094   3.227   1.873   1.718
 1774SOL  HW2   7095   3.155   1.995   1.770
 1774SOL  MW    7096   3.210   1.959   1.714
 1775SOL  OW    7097   3.260   1.963   1.972
 1775SOL  HW1   7098   3.337   2.003   2.012
 1775SOL  HW2   7099   3.211   1.927   2.045
 1775SOL  MW    7100   3.263   1.964   1.986
 1776SOL  OW    7101   3.202   2.008   2.341
 1776SOL  HW1   7102   3.168   1.920   2.354
 1776SOL  HW2   7103   3.131   2.066   2.369
 1776SOL  MW    7104   3.189   2.004   2.346
 1777SOL  OW    7105   3.226   1.988   2.637
 1777SOL  HW1   7106   3.279   2.059   2.602
 1777SOL  HW2   7107   3.209   2.012   2.728
 1777SOL  MW    7108   3.231   2.000   2.644
 1778SOL  OW    7109   3.250   1.980   2.896
 1778SOL  HW1   7110   3.232   1.954   2.986
 1778SOL  HW2   7111   3.168   2.017   2.864
 1778SOL  MW    7112   3.237   1.981   2.903
 1779SOL  OW    7113   3.219   2.022   3.246
 1779SOL  HW1   7114   3.253   2.045   3.160
 1779SOL  HW2   7115   3.279   2.066   3.308
 1779SOL  MW    7116   3.231   2.031   3.243
 1780SOL  OW    7117   3.244   2.026   3.521
 1780SOL  HW1   7118   3.150   2.028   3.505
 1780SOL  HW2   7119   3.253   2.043   3.614
 1780SOL  MW    7120   3.233   2.029   3.531
 1781SOL  OW    7121   3.218   1.963   3.876
 1781SOL  HW1   7122   3.259   1.991   3.794
 1781SOL  HW2   7123   3.131   2.002   3.873
 1781SOL  MW    7124   3.212   1.972   3.865
 1782SOL  OW    7125   3.237   2.292   0.119
 1782SOL  HW1   7126   3.238   2.200   0.092
 1782SOL  HW2   7127   3.164   2.298   0.180
 1782SOL  MW    7128   3.228   2.281   0.124
 1783SOL  OW    7129   3.249   2.328   0.475
 1783SOL  HW1   7130   3.236   2.292   0.387
 1783SOL  HW2   7131   3.261   2.250   0.530
 1783SOL  MW    7132   3.249   2.313   0.471
 1784SOL  OW    7133   3.207   2.341   0.789
 1784SOL  HW1   7134   3.186   2.403   0.859
 1784SOL  HW2   7135   3.199   2.392   0.709
 1784SOL  MW    7136   3.203   2.355   0.788
 1785SOL  OW    7137   3.243   2.320   1.109
 1785SOL  HW1   7138   3.252   2.268   1.029
 1785SOL  HW2   7139   3.325   2.369   1.116
 1785SOL  MW    7140   3.255   2.319   1.100
 1786SOL  OW    7141   3.265   2.315   1.378
 1786SOL  HW1   7142   3.262   2.222   1.359
 1786SOL  HW2   7143   3.358   2.336   1.381
 1786SOL  MW    7144   3.277   2.306   1.376
 1787SOL  OW    7145   3.220   2.333   1.704
 1787SOL  HW1   7146   3.294   2.327   1.764
 1787SOL  HW2   7147   3.177   2.416   1.727
 1787SOL  MW    7148   3.224   2.343   1.715
 1788SOL  OW    7149   3.197   2.279   2.032
 1788SOL  HW1   7150   3.270   2.238   2.079
 1788SOL  HW2   7151   3.135   2.302   2.101
 1788SOL  MW    7152   3.198   2.277   2.047
 1789SOL  OW    7153   3.262   2.344   2.302
 1789SOL  HW1   7154   3.215   2.312   2.379
 1789SOL  HW2   7155   3.224   2.430   2.285
 1789SOL  MW    7156   3.251   2.351   2.310
 1790SOL  OW    7157   3.253   2.334   2.601
 1790SOL  HW1   7158   3.196   2.404   2.571
 1790SOL  HW2   7159   3.217   2.254   2.562
 1790SOL  MW    7160   3.241   2.333   2.592
 1791SOL  OW    7161   3.202   2.347   2.885
 1791SOL  HW1   7162   3.214   2.344   2.980
 1791SOL  HW2   7163   3.281   2.307   2.850
 1791SOL  MW    7164   3.214   2.342   2.893
 1792SOL  OW    7165   3.239   2.320   3.245
 1792SOL  HW1   7166   3.217   2.305   3.153
 1792SOL  HW2   7167   3.333   2.336   3.246
 1792SOL  MW    7168   3.248   2.320   3.234
 1793SOL  OW    7169   3.211   2.325   3.516
 1793SOL  HW1   7170   3.276   2.306   3.584
 1793SOL  HW2   7171   3.259   2.379   3.452
 1793SOL  MW    7172   3.226   2.330   3.516
 1794SOL  OW    7173   3.257   2.285   3.862
 1794SOL  HW1   7174   3.234   2.210   3.807
 1794SOL  HW2   7175   3.183   2.345   3.853
 1794SOL  MW    7176   3.245   2.283   3.854
 1795SOL  OW    7177   3.253   2.591   0.133
 1795SOL  HW1   7178   3.338   2.636   0.133
 1795SOL  HW2   7179   3.234   2.576   0.040
 1795SOL  MW    7180   3.262   2.594   0.121
 1796SOL  OW    7181   3.253   2.582   0.437
 1796SOL  HW1   7182   3.281   2.526   0.509
 1796SOL  HW2   7183   3.277   2.534   0.358
 1796SOL  MW    7184   3.260   2.569   0.436
 1797SOL  OW    7185   3.227   2.650   0.774
 1797SOL  HW1   7186   3.196   2.602   0.851
 1797SOL  HW2   7187   3.181   2.609   0.701
 1797SOL  MW    7188   3.217   2.638   0.775
 1798SOL  OW    7189   3.222   2.654   1.074
 1798SOL  HW1   7190   3.217   2.747   1.093
 1798SOL  HW2   7191   3.255   2.649   0.984
 1798SOL  MW    7192   3.225   2.665   1.065
 1799SOL  OW    7193   3.225   2.608   1.370
 1799SOL  HW1   7194   3.303   2.664   1.367
 1799SOL  HW2   7195   3.217   2.575   1.280
 1799SOL  MW    7196   3.234   2.611   1.358
 1800SOL  OW    7197   3.217   2.630   1.656
 1800SOL  HW1   7198   3.253   2.543   1.641
 1800SOL  HW2   7199   3.139   2.616   1.709
 1800SOL  MW    7200   3.211   2.617   1.661
 1801SOL  OW    7201   3.245   2.591   1.991
 1801SOL  HW1   7202   3.247   2.542   2.073
 1801SOL  HW2   7203   3.325   2.644   1.992
 1801SOL  MW    7204   3.256   2.592   2.001
 1802SOL  OW    7205   3.202   2.620   2.326
 1802SOL  HW1   7206   3.269   2.657   2.384
 1802SOL  HW2   7207   3.209   2.525   2.340
 1802SOL  MW    7208   3.212   2.612   2.335
 1803SOL  OW    7209   3.219   2.588   2.594
 1803SOL  HW1   7210   3.309   2.621   2.592
 1803SOL  HW2   7211   3.180   2.630   2.670
 1803SOL  MW    7212   3.226   2.598   2.603
 1804SOL  OW    7213   3.256   2.597   2.945
 1804SOL  HW1   7214   3.182   2.655   2.961
 1804SOL  HW2   7215   3.318   2.650   2.895
 1804SOL  MW    7216   3.255   2.611   2.941
 1805SOL  OW    7217   3.217   2.590   3.249
 1805SOL  HW1   7218   3.209   2.497   3.268
 1805SOL  HW2   7219   3.220   2.595   3.153
 1805SOL  MW    7220   3.217   2.579   3.239
 1806SOL  OW    7221   3.228   2.578   3.575
 1806SOL  HW1   7222   3.324   2.576   3.579
 1806SOL  HW2   7223   3.200   2.574   3.667
 1806SOL  MW    7224   3.237   2.577   3.587
 1807SOL  OW    7225   3.203   2.604   3.837
 1807SOL  HW1   7226   3.134   2.624   3.900
 1807SOL  HW2   7227   3.284   2.630   3.880
 1807SOL  MW    7228   3.204   2.610   3.851
 1808SOL  OW    7229   3.230   2.946   0.114
 1808SOL  HW1   7230   3.141   2.927   0.086
 1808SOL  HW2   7231   3.285   2.921   0.040
 1808SOL  MW    7232   3.225   2.940   0.101
 1809SOL  OW    7233   3.265   2.935   0.498
 1809SOL  HW1   7234   3.341   2.916   0.554
 1809SOL  HW2   7235   3.192   2.946   0.559
 1809SOL  MW    7236   3.266   2.934   0.513
 1810SOL  OW    7237   3.256   2.957   0.777
 1810SOL  HW1   7238   3.221   3.042   0.806
 1810SOL  HW2   7239   3.242   2.956   0.683
 1810SOL  MW    7240   3.250   2.968   0.769
 1811SOL  OW    7241   3.219   2.919   1.090
 1811SOL  HW1   7242   3.166   2.997   1.078
 1811SOL  HW2   7243   3.307   2.944   1.059
 1811SOL  MW    7244   3.224   2.932   1.084
 1812SOL  OW    7245   3.225   2.942   1.352
 1812SOL  HW1   7246   3.135   2.927   1.324
 1812SOL  HW2   7247   3.220   3.020   1.407
 1812SOL  MW    7248   3.213   2.950   1.355
 1813SOL  OW    7249   3.257   2.899   1.728
 1813SOL  HW1   7250   3.340   2.942   1.704
 1813SOL  HW2   7251   3.191   2.967   1.715
 1813SOL  MW    7252   3.259   2.914   1.723
 1814SOL  OW    7253   3.203   2.893   2.025
 1814SOL  HW1   7254   3.277   2.877   1.967
 1814SOL  HW2   7255   3.236   2.872   2.112
 1814SOL  MW    7256   3.217   2.888   2.029
 1815SOL  OW    7257   3.256   2.942   2.345
 1815SOL  HW1   7258   3.314   2.965   2.271
 1815SOL  HW2   7259   3.289   2.858   2.375
 1815SOL  MW    7260   3.268   2.934   2.339
 1816SOL  OW    7261   3.212   2.949   2.604
 1816SOL  HW1   7262   3.223   3.013   2.533
 1816SOL  HW2   7263   3.197   3.002   2.682
 1816SOL  MW    7264   3.212   2.964   2.605
 1817SOL  OW    7265   3.234   2.919   2.884
 1817SOL  HW1   7266   3.226   2.879   2.797
 1817SOL  HW2   7267   3.213   3.011   2.869
 1817SOL  MW    7268   3.230   2.925   2.871
 1818SOL  OW    7269   3.237   2.943   3.205
 1818SOL  HW1   7270   3.251   2.853   3.176
 1818SOL  HW2   7271   3.198   2.986   3.129
 1818SOL  MW    7272   3.234   2.937   3.191
 1819SOL  OW    7273   3.265   2.926   3.513
 1819SOL  HW1   7274   3.237   2.993   3.575
 1819SOL  HW2   7275   3.184   2.892   3.475
 1819SOL  MW    7276   3.251   2.930   3.516
 1820SOL  OW    7277   3.242   2.898   3.811
 1820SOL  HW1   7278   3.303   2.970   3.833
 1820SOL  HW2   7279   3.156   2.931   3.837
 1820SOL  MW    7280   3.239   2.912   3.817
 1821SOL  OW    7281   3.246   3.200   0.122
 1821SOL  HW1   7282   3.245   3.109   0.090
 1821SOL  HW2   7283   3.298   3.247   0.058
 1821SOL  MW    7284   3.252   3.194   0.110
 1822SOL  OW    7285   3.250   3.195   0.486
 1822SOL  HW1   7286   3.184   3.172   0.552
 1822SOL  HW2   7287   3.262   3.116   0.435
 1822SOL  MW    7288   3.243   3.182   0.488
 1823SOL  OW    7289   3.254   3.202   0.771
 1823SOL  HW1   7290   3.161   3.196   0.753
 1823SOL  HW2   7291   3.286   3.112   0.762
 1823SOL  MW    7292   3.247   3.190   0.767
 1824SOL  OW    7293   3.198   3.241   1.042
 1824SOL  HW1   7294   3.239   3.162   1.006
 1824SOL  HW2   7295   3.227   3.244   1.133
 1824SOL  MW    7296   3.207   3.232   1.049
 1825SOL  OW    7297   3.266   3.207   1.399
 1825SOL  HW1   7298   3.184   3.256   1.406
 1825SOL  HW2   7299   3.243   3.128   1.351
 1825SOL  MW    7300   3.253   3.204   1.394
 1826SOL  OW    7301   3.201   3.208   1.688
 1826SOL  HW1   7302   3.220   3.271   1.757
 1826SOL  HW2   7303   3.220   3.123   1.728
 1826SOL  MW    7304   3.206   3.205   1.702
 1827SOL  OW    7305   3.237   3.271   1.962
 1827SOL  HW1   7306   3.190   3.254   2.044
 1827SOL  HW2   7307   3.197   3.351   1.928
 1827SOL  MW    7308   3.226   3.279   1.968
 1828SOL  OW    7309   3.191   3.219   2.297
 1828SOL  HW1   7310   3.238   3.165   2.233
 1828SOL  HW2   7311   3.180   3.304   2.254
 1828SOL  MW    7312   3.195   3.223   2.283
 1829SOL  OW    7313   3.261   3.264   2.646
 1829SOL  HW1   7314   3.335   3.204   2.633
 1829SOL  HW2   7315   3.184   3.208   2.642
 1829SOL  MW    7316   3.261   3.249   2.644
 1830SOL  OW    7317   3.202   3.224   2.943
 1830SOL  HW1   7318   3.280   3.234   2.887
 1830SOL  HW2   7319   3.206   3.133   2.973
 1830SOL  MW    7320   3.213   3.213   2.940
 1831SOL  OW    7321   3.216   3.244   3.210
 1831SOL  HW1   7322   3.171   3.245   3.125
 1831SOL  HW2   7323   3.184   3.164   3.253
 1831SOL  MW    7324   3.206   3.234   3.204
 1832SOL  OW    7325   3.217   3.260   3.519
 1832SOL  HW1   7326   3.125   3.234   3.504
 1832SOL  HW2   7327   3.243   3.210   3.596
 1832SOL  MW    7328   3.208   3.250   3.527
 1833SOL  OW    7329   3.268   3.215   3.808
 1833SOL  HW1   7330   3.225   3.176   3.732
 1833SOL  HW2   7331   3.360   3.220   3.784
 1833SOL  MW    7332   3.274   3.211   3.795
 1834SOL  OW    7333   3.211   3.512   0.154
 1834SOL  HW1   7334   3.231   3.600   0.186
 1834SOL  HW2   7335   3.191   3.524   0.062
 1834SOL  MW    7336   3.211   3.525   0.147
 1835SOL  OW    7337   3.200   3.549   0.492
 1835SOL  HW1   7338   3.282   3.558   0.539
 1835SOL  HW2   7339   3.191   3.630   0.443
 1835SOL  MW    7340   3.209   3.560   0.491
 1836SOL  OW    7341   3.220   3.512   0.761
 1836SOL  HW1   7342   3.178   3.540   0.680
 1836SOL  HW2   7343   3.311   3.541   0.752
 1836SOL  MW    7344   3.226   3.519   0.750
 1837SOL  OW    7345   3.254   3.546   1.045
 1837SOL  HW1   7346   3.264   3.639   1.028
 1837SOL  HW2   7347   3.191   3.516   0.979
 1837SOL  MW    7348   3.247   3.554   1.034
 1838SOL  OW    7349   3.234   3.536   1.371
 1838SOL  HW1   7350   3.318   3.565   1.336
 1838SOL  HW2   7351   3.207   3.607   1.429
 1838SOL  MW    7352   3.241   3.549   1.374
 1839SOL  OW    7353   3.200   3.577   1.666
 1839SOL  HW1   7354   3.134   3.551   1.732
 1839SOL  HW2   7355   3.180   3.669   1.648
 1839SOL  MW    7356   3.189   3.585   1.672
 1840SOL  OW    7357   3.206   3.510   2.006
 1840SOL  HW1   7358   3.264   3.454   1.955
 1840SOL  HW2   7359   3.177   3.577   1.944
 1840SOL  MW    7360   3.210   3.511   1.991
 1841SOL  OW    7361   3.226   3.518   2.302
 1841SOL  HW1   7362   3.201   3.554   2.388
 1841SOL  HW2   7363   3.296   3.577   2.272
 1841SOL  MW    7364   3.232   3.530   2.309
 1842SOL  OW    7365   3.245   3.521   2.649
 1842SOL  HW1   7366   3.228   3.612   2.673
 1842SOL  HW2   7367   3.182   3.503   2.579
 1842SOL  MW    7368   3.234   3.530   2.643
 1843SOL  OW    7369   3.215   3.514   2.959
 1843SOL  HW1   7370   3.140   3.571   2.942
 1843SOL  HW2   7371   3.231   3.469   2.877
 1843SOL  MW    7372   3.208   3.516   2.947
 1844SOL  OW    7373   3.256   3.526   3.258
 1844SOL  HW1   7374   3.251   3.558   3.348
 1844SOL  HW2   7375   3.327   3.576   3.219
 1844SOL  MW    7376   3.264   3.536   3.265
 1845SOL  OW    7377   3.232   3.526   3.566
 1845SOL  HW1   7378   3.238   3.446   3.617
 1845SOL  HW2   7379   3.223   3.596   3.630
 1845SOL  MW    7380   3.232   3.525   3.581
 1846SOL  OW    7381   3.251   3.522   3.855
 1846SOL  HW1   7382   3.272   3.598   3.910
 1846SOL  HW2   7383   3.336   3.481   3.838
 1846SOL  MW    7384   3.264   3.527   3.860
 1847SOL  OW    7385   3.220   3.806   0.191
 1847SOL  HW1   7386   3.203   3.743   0.260
 1847SOL  HW2   7387   3.153   3.789   0.125
 1847SOL  MW    7388   3.209   3.796   0.191
 1848SOL  OW    7389   3.235   3.854   0.470
 1848SOL  HW1   7390   3.281   3.937   0.461
 1848SOL  HW2   7391   3.271   3.815   0.549
 1848SOL  MW    7392   3.245   3.860   0.479
 1849SOL  OW    7393   3.235   3.829   0.807
 1849SOL  HW1   7394   3.228   3.884   0.729
 1849SOL  HW2   7395   3.228   3.890   0.880
 1849SOL  MW    7396   3.233   3.844   0.806
 1850SOL  OW    7397   3.241   3.860   1.073
 1850SOL  HW1   7398   3.194   3.899   1.147
 1850SOL  HW2   7399   3.199   3.774   1.062
 1850SOL  MW    7400   3.229   3.854   1.081
 1851SOL  OW    7401   3.214   3.811   1.373
 1851SOL  HW1   7402   3.189   3.775   1.458
 1851SOL  HW2   7403   3.175   3.899   1.371
 1851SOL  MW    7404   3.206   3.818   1.383
 1852SOL  OW    7405   3.205   3.859   1.723
 1852SOL  HW1   7406   3.294   3.866   1.690
 1852SOL  HW2   7407   3.150   3.893   1.652
 1852SOL  MW    7408   3.209   3.864   1.709
 1853SOL  OW    7409   3.215   3.833   2.014
 1853SOL  HW1   7410   3.170   3.900   1.962
 1853SOL  HW2   7411   3.167   3.752   1.994
 1853SOL  MW    7412   3.203   3.831   2.005
 1854SOL  OW    7413   3.203   3.881   2.297
 1854SOL  HW1   7414   3.255   3.800   2.302
 1854SOL  HW2   7415   3.167   3.892   2.385
 1854SOL  MW    7416   3.205   3.872   2.309
 1855SOL  OW    7417   3.199   3.820   2.650
 1855SOL  HW1   7418   3.134   3.845   2.716
 1855SOL  HW2   7419   3.247   3.901   2.632
 1855SOL  MW    7420   3.197   3.834   2.656
 1856SOL  OW    7421   3.211   3.859   2.896
 1856SOL  HW1   7422   3.216   3.796   2.968
 1856SOL  HW2   7423   3.117   3.862   2.874
 1856SOL  MW    7424   3.199   3.852   2.902
 1857SOL  OW    7425   3.206   3.876   3.203
 1857SOL  HW1   7426   3.159   3.917   3.130
 1857SOL  HW2   7427   3.250   3.801   3.163
 1857SOL  MW    7428   3.206   3.872   3.188
 1858SOL  OW    7429   3.192   3.846   3.567
 1858SOL  HW1   7430   3.258   3.888   3.622
 1858SOL  HW2   7431   3.219   3.754   3.564
 1858SOL  MW    7432   3.204   3.840   3.574
 1859SOL  OW    7433   3.217   3.816   3.885
 1859SOL  HW1   7434   3.311   3.802   3.878
 1859SOL  HW2   7435   3.179   3.728   3.884
 1859SOL  MW    7436   3.224   3.803   3.884
 1860SOL  OW    7437   3.553   0.182   0.174
 1860SOL  HW1   7438   3.623   0.118   0.179
 1860SOL  HW2   7439   3.594   0.265   0.196
 1860SOL  MW    7440   3.567   0.184   0.177
 1861SOL  OW    7441   3.554   0.145   0.447
 1861SOL  HW1   7442   3.480   0.181   0.399
 1861SOL  HW2   7443   3.540   0.050   0.446
 1861SOL  MW    7444   3.543   0.137   0.441
 1862SOL  OW    7445   3.556   0.171   0.805
 1862SOL  HW1   7446   3.469   0.131   0.812
 1862SOL  HW2   7447   3.609   0.106   0.759
 1862SOL  MW    7448   3.552   0.158   0.800
 1863SOL  OW    7449   3.544   0.137   1.076
 1863SOL  HW1   7450   3.455   0.118   1.105
 1863SOL  HW2   7451   3.562   0.073   1.008
 1863SOL  MW    7452   3.535   0.127   1.071
 1864SOL  OW    7453   3.548   0.148   1.408
 1864SOL  HW1   7454   3.587   0.235   1.419
 1864SOL  HW2   7455   3.595   0.092   1.469
 1864SOL  MW    7456   3.559   0.152   1.417
 1865SOL  OW    7457   3.545   0.115   1.698
 1865SOL  HW1   7458   3.552   0.188   1.759
 1865SOL  HW2   7459   3.455   0.118   1.666
 1865SOL  MW    7460   3.535   0.124   1.702
 1866SOL  OW    7461   3.549   0.187   1.993
 1866SOL  HW1   7462   3.601   0.107   2.001
 1866SOL  HW2   7463   3.504   0.179   1.909
 1866SOL  MW    7464   3.550   0.176   1.983
 1867SOL  OW    7465   3.544   0.152   2.310
 1867SOL  HW1   7466   3.607   0.156   2.383
 1867SOL  HW2   7467   3.556   0.064   2.274
 1867SOL  MW    7468   3.554   0.141   2.315
 1868SOL  OW    7469   3.504   0.186   2.648
 1868SOL  HW1   7470   3.543   0.122   2.708
 1868SOL  HW2   7471   3.524   0.152   2.561
 1868SOL  MW    7472   3.511   0.173   2.645
 1869SOL  OW    7473   3.542   0.158   2.888
 1869SOL  HW1   7474   3.616   0.098   2.900
 1869SOL  HW2   7475   3.534   0.168   2.793
 1869SOL  MW    7476   3.551   0.152   2.877
 1870SOL  OW    7477   3.546   0.148   3.247
 1870SOL  HW1   7478   3.483   0.217   3.226
 1870SOL  HW2   7479   3.586   0.177   3.330
 1870SOL  MW    7480   3.543   0.161   3.255
 1871SOL  OW    7481   3.502   0.171   3.521
 1871SOL  HW1   7482   3.436   0.107   3.496
 1871SOL  HW2   7483   3.456   0.234   3.577
 1871SOL  MW    7484   3.488   0.171   3.525
 1872SOL  OW    7485   3.551   0.164   3.824
 1872SOL  HW1   7486   3.609   0.217   3.878
 1872SOL  HW2   7487   3.478   0.223   3.801
 1872SOL  MW    7488   3.549   0.178   3.828
 1873SOL  OW    7489   3.534   0.488   0.162
 1873SOL  HW1   7490   3.579   0.564   0.200
 1873SOL  HW2   7491   3.585   0.465   0.085
 1873SOL  MW    7492   3.546   0.495   0.157
 1874SOL  OW    7493   3.504   0.457   0.446
 1874SOL  HW1   7494   3.526   0.500   0.364
 1874SOL  HW2   7495   3.431   0.399   0.425
 1874SOL  MW    7496   3.497   0.455   0.433
 1875SOL  OW    7497   3.550   0.471   0.730
 1875SOL  HW1   7498   3.551   0.381   0.762
 1875SOL  HW2   7499   3.461   0.484   0.697
 1875SOL  MW    7500   3.539   0.461   0.730
 1876SOL  OW    7501   3.547   0.480   1.098
 1876SOL  HW1   7502   3.502   0.561   1.074
 1876SOL  HW2   7503   3.640   0.500   1.087
 1876SOL  MW    7504   3.553   0.493   1.094
 1877SOL  OW    7505   3.503   0.446   1.378
 1877SOL  HW1   7506   3.478   0.536   1.398
 1877SOL  HW2   7507   3.430   0.393   1.411
 1877SOL  MW    7508   3.491   0.451   1.385
 1878SOL  OW    7509   3.513   0.455   1.658
 1878SOL  HW1   7510   3.458   0.398   1.712
 1878SOL  HW2   7511   3.466   0.539   1.657
 1878SOL  MW    7512   3.500   0.459   1.665
 1879SOL  OW    7513   3.508   0.475   1.981
 1879SOL  HW1   7514   3.503   0.399   1.923
 1879SOL  HW2   7515   3.538   0.546   1.925
 1879SOL  MW    7516   3.511   0.474   1.966
 1880SOL  OW    7517   3.555   0.425   2.313
 1880SOL  HW1   7518   3.461   0.438   2.325
 1880SOL  HW2   7519   3.569   0.332   2.326
 1880SOL  MW    7520   3.545   0.415   2.316
 1881SOL  OW    7521   3.530   0.485   2.638
 1881SOL  HW1   7522   3.560   0.395   2.626
 1881SOL  HW2   7523   3.460   0.496   2.574
 1881SOL  MW    7524   3.525   0.475   2.628
 1882SOL  OW    7525   3.529   0.471   2.901
 1882SOL  HW1   7526   3.457   0.408   2.908
 1882SOL  HW2   7527   3.566   0.474   2.989
 1882SOL  MW    7528   3.524   0.464   2.913
 1883SOL  OW    7529   3.545   0.428   3.226
 1883SOL  HW1   7530   3.636   0.433   3.255
 1883SOL  HW2   7531   3.494   0.422   3.306
 1883SOL  MW    7532   3.550   0.428   3.240
 1884SOL  OW    7533   3.513   0.492   3.534
 1884SOL  HW1   7534   3.508   0.580   3.496
 1884SOL  HW2   7535   3.432   0.449   3.507
 1884SOL  MW    7536   3.502   0.498   3.526
 1885SOL  OW    7537   3.546   0.450   3.829
 1885SOL  HW1   7538   3.460   0.486   3.852
 1885SOL  HW2   7539   3.559   0.379   3.891
 1885SOL  MW    7540   3.536   0.446   3.840
 1886SOL  OW    7541   3.515   0.802   0.178
 1886SOL  HW1   7542   3.580   0.871   0.189
 1886SOL  HW2   7543   3.434   0.840   0.213
 1886SOL  MW    7544   3.513   0.816   0.184
 1887SOL  OW    7545   3.509   0.789   0.455
 1887SOL  HW1   7546   3.501   0.883   0.437
 1887SOL  HW2   7547   3.549   0.752   0.376
 1887SOL  MW    7548   3.513   0.796   0.443
 1888SOL  OW    7549   3.500   0.772   0.740
 1888SOL  HW1   7550   3.463   0.697   0.692
 1888SOL  HW2   7551   3.500   0.843   0.676
 1888SOL  MW    7552   3.495   0.771   0.725
 1889SOL  OW    7553   3.515   0.785   1.057
 1889SOL  HW1   7554   3.548   0.699   1.083
 1889SOL  HW2   7555   3.422   0.783   1.080
 1889SOL  MW    7556   3.508   0.774   1.064
 1890SOL  OW    7557   3.570   0.782   1.411
 1890SOL  HW1   7558   3.623   0.732   1.474
 1890SOL  HW2   7559   3.609   0.869   1.410
 1890SOL  MW    7560   3.582   0.787   1.419
 1891SOL  OW    7561   3.548   0.799   1.681
 1891SOL  HW1   7562   3.538   0.866   1.748
 1891SOL  HW2   7563   3.580   0.846   1.604
 1891SOL  MW    7564   3.551   0.813   1.680
 1892SOL  OW    7565   3.542   0.771   2.032
 1892SOL  HW1   7566   3.524   0.851   1.984
 1892SOL  HW2   7567   3.491   0.703   1.988
 1892SOL  MW    7568   3.533   0.772   2.020
 1893SOL  OW    7569   3.512   0.775   2.328
 1893SOL  HW1   7570   3.603   0.779   2.300
 1893SOL  HW2   7571   3.463   0.748   2.250
 1893SOL  MW    7572   3.517   0.772   2.314
 1894SOL  OW    7573   3.528   0.799   2.605
 1894SOL  HW1   7574   3.451   0.745   2.624
 1894SOL  HW2   7575   3.540   0.791   2.511
 1894SOL  MW    7576   3.520   0.791   2.596
 1895SOL  OW    7577   3.512   0.776   2.917
 1895SOL  HW1   7578   3.497   0.696   2.967
 1895SOL  HW2   7579   3.607   0.789   2.922
 1895SOL  MW    7580   3.522   0.767   2.924
 1896SOL  OW    7581   3.500   0.735   3.206
 1896SOL  HW1   7582   3.409   0.704   3.212
 1896SOL  HW2   7583   3.552   0.662   3.240
 1896SOL  MW    7584   3.495   0.722   3.211
 1897SOL  OW    7585   3.560   0.801   3.542
 1897SOL  HW1   7586   3.519   0.742   3.479
 1897SOL  HW2   7587   3.563   0.885   3.497
 1897SOL  MW    7588   3.555   0.804   3.528
 1898SOL  OW    7589   3.507   0.772   3.875
 1898SOL  HW1   7590   3.449   0.759   3.800
 1898SOL  HW2   7591   3.537   0.684   3.897
 1898SOL  MW    7592   3.503   0.759   3.868
 1899SOL  OW    7593   3.558   1.060   0.124
 1899SOL  HW1   7594   3.624   1.050   0.055
 1899SOL  HW2   7595   3.604   1.036   0.204
 1899SOL  MW    7596   3.573   1.056   0.125
 1900SOL  OW    7597   3.571   1.105   0.426
 1900SOL  HW1   7598   3.534   1.085   0.340
 1900SOL  HW2   7599   3.566   1.023   0.474
 1900SOL  MW    7600   3.565   1.092   0.421
 1901SOL  OW    7601   3.564   1.045   0.734
 1901SOL  HW1   7602   3.558   1.099   0.656
 1901SOL  HW2   7603   3.476   1.010   0.747
 1901SOL  MW    7604   3.552   1.047   0.726
 1902SOL  OW    7605   3.559   1.080   1.070
 1902SOL  HW1   7606   3.476   1.045   1.101
 1902SOL  HW2   7607   3.560   1.170   1.101
 1902SOL  MW    7608   3.549   1.087   1.078
 1903SOL  OW    7609   3.571   1.104   1.349
 1903SOL  HW1   7610   3.636   1.036   1.362
 1903SOL  HW2   7611   3.529   1.081   1.266
 1903SOL  MW    7612   3.574   1.092   1.340
 1904SOL  OW    7613   3.548   1.099   1.696
 1904SOL  HW1   7614   3.623   1.114   1.639
 1904SOL  HW2   7615   3.569   1.018   1.743
 1904SOL  MW    7616   3.560   1.090   1.695
 1905SOL  OW    7617   3.577   1.092   1.968
 1905SOL  HW1   7618   3.640   1.110   2.038
 1905SOL  HW2   7619   3.549   1.178   1.938
 1905SOL  MW    7620   3.582   1.105   1.973
 1906SOL  OW    7621   3.514   1.103   2.347
 1906SOL  HW1   7622   3.610   1.101   2.340
 1906SOL  HW2   7623   3.498   1.142   2.433
 1906SOL  MW    7624   3.524   1.108   2.357
 1907SOL  OW    7625   3.506   1.045   2.636
 1907SOL  HW1   7626   3.577   1.003   2.685
 1907SOL  HW2   7627   3.488   1.126   2.685
 1907SOL  MW    7628   3.513   1.050   2.649
 1908SOL  OW    7629   3.504   1.042   2.954
 1908SOL  HW1   7630   3.543   0.989   2.885
 1908SOL  HW2   7631   3.573   1.051   3.020
 1908SOL  MW    7632   3.517   1.037   2.954
 1909SOL  OW    7633   3.562   1.107   3.243
 1909SOL  HW1   7634   3.652   1.088   3.272
 1909SOL  HW2   7635   3.536   1.184   3.294
 1909SOL  MW    7636   3.571   1.115   3.253
 1910SOL  OW    7637   3.524   1.109   3.522
 1910SOL  HW1   7638   3.602   1.122   3.577
 1910SOL  HW2   7639   3.463   1.177   3.552
 1910SOL  MW    7640   3.526   1.120   3.533
 1911SOL  OW    7641   3.521   1.108   3.861
 1911SOL  HW1   7642   3.604   1.153   3.849
 1911SOL  HW2   7643   3.473   1.125   3.779
 1911SOL  MW    7644   3.525   1.116   3.849
 1912SOL  OW    7645   3.570   1.357   0.190
 1912SOL  HW1   7646   3.633   1.334   0.122
 1912SOL  HW2   7647   3.561   1.452   0.183
 1912SOL  MW    7648   3.577   1.366   0.180
 1913SOL  OW    7649   3.547   1.398   0.495
 1913SOL  HW1   7650   3.530   1.322   0.439
 1913SOL  HW2   7651   3.642   1.413   0.486
 1913SOL  MW    7652   3.557   1.390   0.486
 1914SOL  OW    7653   3.529   1.402   0.780
 1914SOL  HW1   7654   3.608   1.384   0.729
 1914SOL  HW2   7655   3.562   1.434   0.864
 1914SOL  MW    7656   3.543   1.404   0.785
 1915SOL  OW    7657   3.561   1.416   1.091
 1915SOL  HW1   7658   3.621   1.357   1.046
 1915SOL  HW2   7659   3.565   1.497   1.040
 1915SOL  MW    7660   3.570   1.419   1.079
 1916SOL  OW    7661   3.504   1.359   1.421
 1916SOL  HW1   7662   3.528   1.302   1.348
 1916SOL  HW2   7663   3.544   1.319   1.498
 1916SOL  MW    7664   3.512   1.347   1.421
 1917SOL  OW    7665   3.576   1.422   1.655
 1917SOL  HW1   7666   3.486   1.414   1.624
 1917SOL  HW2   7667   3.586   1.515   1.674
 1917SOL  MW    7668   3.566   1.433   1.654
 1918SOL  OW    7669   3.529   1.405   2.020
 1918SOL  HW1   7670   3.603   1.345   2.018
 1918SOL  HW2   7671   3.500   1.405   2.112
 1918SOL  MW    7672   3.535   1.398   2.032
 1919SOL  OW    7673   3.505   1.393   2.279
 1919SOL  HW1   7674   3.510   1.489   2.284
 1919SOL  HW2   7675   3.542   1.372   2.193
 1919SOL  MW    7676   3.511   1.403   2.269
 1920SOL  OW    7677   3.538   1.364   2.580
 1920SOL  HW1   7678   3.575   1.320   2.503
 1920SOL  HW2   7679   3.454   1.320   2.594
 1920SOL  MW    7680   3.532   1.353   2.572
 1921SOL  OW    7681   3.505   1.417   2.943
 1921SOL  HW1   7682   3.559   1.473   2.887
 1921SOL  HW2   7683   3.448   1.479   2.990
 1921SOL  MW    7684   3.505   1.432   2.942
 1922SOL  OW    7685   3.573   1.382   3.224
 1922SOL  HW1   7686   3.641   1.439   3.187
 1922SOL  HW2   7687   3.618   1.300   3.244
 1922SOL  MW    7688   3.587   1.379   3.222
 1923SOL  OW    7689   3.527   1.394   3.527
 1923SOL  HW1   7690   3.566   1.467   3.575
 1923SOL  HW2   7691   3.551   1.316   3.577
 1923SOL  MW    7692   3.535   1.393   3.539
 1924SOL  OW    7693   3.558   1.409   3.876
 1924SOL  HW1   7694   3.609   1.369   3.947
 1924SOL  HW2   7695   3.544   1.338   3.813
 1924SOL  MW    7696   3.563   1.395   3.877
 1925SOL  OW    7697   3.518   1.694   0.132
 1925SOL  HW1   7698   3.435   1.694   0.180
 1925SOL  HW2   7699   3.584   1.713   0.198
 1925SOL  MW    7700   3.516   1.697   0.146
 1926SOL  OW    7701   3.501   1.709   0.465
 1926SOL  HW1   7702   3.420   1.710   0.416
 1926SOL  HW2   7703   3.539   1.623   0.448
 1926SOL  MW    7704   3.496   1.698   0.457
 1927SOL  OW    7705   3.556   1.659   0.809
 1927SOL  HW1   7706   3.538   1.689   0.898
 1927SOL  HW2   7707   3.645   1.623   0.813
 1927SOL  MW    7708   3.565   1.658   0.821
 1928SOL  OW    7709   3.578   1.690   1.106
 1928SOL  HW1   7710   3.662   1.670   1.064
 1928SOL  HW2   7711   3.515   1.695   1.034
 1928SOL  MW    7712   3.581   1.688   1.092
 1929SOL  OW    7713   3.518   1.711   1.415
 1929SOL  HW1   7714   3.522   1.765   1.336
 1929SOL  HW2   7715   3.572   1.635   1.395
 1929SOL  MW    7716   3.525   1.708   1.402
 1930SOL  OW    7717   3.564   1.717   1.689
 1930SOL  HW1   7718   3.552   1.699   1.596
 1930SOL  HW2   7719   3.475   1.716   1.725
 1930SOL  MW    7720   3.551   1.715   1.682
 1931SOL  OW    7721   3.564   1.708   1.971
 1931SOL  HW1   7722   3.599   1.702   2.060
 1931SOL  HW2   7723   3.575   1.799   1.946
 1931SOL  MW    7724   3.570   1.719   1.979
 1932SOL  OW    7725   3.508   1.714   2.318
 1932SOL  HW1   7726   3.452   1.770   2.372
 1932SOL  HW2   7727   3.518   1.763   2.236
 1932SOL  MW    7728   3.502   1.727   2.314
 1933SOL  OW    7729   3.540   1.725   2.628
 1933SOL  HW1   7730   3.493   1.800   2.592
 1933SOL  HW2   7731   3.535   1.737   2.723
 1933SOL  MW    7732   3.533   1.736   2.636
 1934SOL  OW    7733   3.530   1.685   2.931
 1934SOL  HW1   7734   3.574   1.729   2.858
 1934SOL  HW2   7735   3.578   1.715   3.009
 1934SOL  MW    7736   3.542   1.695   2.932
 1935SOL  OW    7737   3.559   1.697   3.231
 1935SOL  HW1   7738   3.534   1.608   3.209
 1935SOL  HW2   7739   3.605   1.730   3.154
 1935SOL  MW    7740   3.562   1.690   3.219
 1936SOL  OW    7741   3.557   1.709   3.565
 1936SOL  HW1   7742   3.633   1.760   3.591
 1936SOL  HW2   7743   3.592   1.639   3.509
 1936SOL  MW    7744   3.571   1.706   3.561
 1937SOL  OW    7745   3.503   1.713   3.847
 1937SOL  HW1   7746   3.443   1.769   3.799
 1937SOL  HW2   7747   3.504   1.749   3.936
 1937SOL  MW    7748   3.496   1.725   3.852
 1938SOL  OW    7749   3.504   2.014   0.171
 1938SOL  HW1   7750   3.422   1.988   0.130
 1938SOL  HW2   7751   3.494   2.108   0.188
 1938SOL  MW    7752   3.493   2.023   0.168
 1939SOL  OW    7753   3.540   2.024   0.446
 1939SOL  HW1   7754   3.483   2.012   0.522
 1939SOL  HW2   7755   3.482   2.053   0.376
 1939SOL  MW    7756   3.526   2.026   0.446
 1940SOL  OW    7757   3.515   1.988   0.762
 1940SOL  HW1   7758   3.476   2.055   0.705
 1940SOL  HW2   7759   3.460   1.990   0.841
 1940SOL  MW    7760   3.503   1.997   0.765
 1941SOL  OW    7761   3.554   2.028   1.095
 1941SOL  HW1   7762   3.517   1.947   1.130
 1941SOL  HW2   7763   3.528   2.096   1.157
 1941SOL  MW    7764   3.546   2.026   1.107
 1942SOL  OW    7765   3.512   1.989   1.357
 1942SOL  HW1   7766   3.426   1.982   1.397
 1942SOL  HW2   7767   3.568   2.025   1.426
 1942SOL  MW    7768   3.508   1.993   1.371
 1943SOL  OW    7769   3.553   1.980   1.694
 1943SOL  HW1   7770   3.587   1.943   1.776
 1943SOL  HW2   7771   3.522   1.904   1.645
 1943SOL  MW    7772   3.554   1.965   1.698
 1944SOL  OW    7773   3.562   2.014   1.984
 1944SOL  HW1   7774   3.637   1.957   1.967
 1944SOL  HW2   7775   3.589   2.100   1.953
 1944SOL  MW    7776   3.575   2.018   1.978
 1945SOL  OW    7777   3.525   2.012   2.312
 1945SOL  HW1   7778   3.603   1.960   2.292
 1945SOL  HW2   7779   3.454   1.965   2.269
 1945SOL  MW    7780   3.526   2.000   2.304
 1946SOL  OW    7781   3.506   2.030   2.616
 1946SOL  HW1   7782   3.431   1.991   2.661
 1946SOL  HW2   7783   3.521   2.112   2.663
 1946SOL  MW    7784   3.499   2.035   2.628
 1947SOL  OW    7785   3.536   1.976   2.913
 1947SOL  HW1   7786   3.500   2.012   2.832
 1947SOL  HW2   7787   3.605   2.038   2.938
 1947SOL  MW    7788   3.541   1.988   2.906
 1948SOL  OW    7789   3.525   1.982   3.236
 1948SOL  HW1   7790   3.570   1.904   3.268
 1948SOL  HW2   7791   3.504   2.031   3.315
 1948SOL  MW    7792   3.528   1.978   3.250
 1949SOL  OW    7793   3.535   2.031   3.574
 1949SOL  HW1   7794   3.459   2.071   3.532
 1949SOL  HW2   7795   3.610   2.061   3.521
 1949SOL  MW    7796   3.535   2.040   3.562
 1950SOL  OW    7797   3.516   1.968   3.869
 1950SOL  HW1   7798   3.463   2.002   3.797
 1950SOL  HW2   7799   3.537   2.045   3.921
 1950SOL  MW    7800   3.512   1.982   3.866
 1951SOL  OW    7801   3.578   2.337   0.116
 1951SOL  HW1   7802   3.518   2.371   0.182
 1951SOL  HW2   7803   3.548   2.376   0.034
 1951SOL  MW    7804   3.566   2.346   0.114
 1952SOL  OW    7805   3.519   2.271   0.487
 1952SOL  HW1   7806   3.556   2.266   0.399
 1952SOL  HW2   7807   3.492   2.363   0.496
 1952SOL  MW    7808   3.520   2.282   0.477
 1953SOL  OW    7809   3.545   2.309   0.774
 1953SOL  HW1   7810   3.582   2.378   0.828
 1953SOL  HW2   7811   3.451   2.312   0.791
 1953SOL  MW    7812   3.538   2.318   0.783
 1954SOL  OW    7813   3.519   2.316   1.039
 1954SOL  HW1   7814   3.613   2.305   1.027
 1954SOL  HW2   7815   3.510   2.342   1.131
 1954SOL  MW    7816   3.530   2.318   1.049
 1955SOL  OW    7817   3.550   2.326   1.398
 1955SOL  HW1   7818   3.476   2.291   1.349
 1955SOL  HW2   7819   3.511   2.393   1.455
 1955SOL  MW    7820   3.536   2.330   1.399
 1956SOL  OW    7821   3.525   2.334   1.710
 1956SOL  HW1   7822   3.571   2.349   1.627
 1956SOL  HW2   7823   3.593   2.302   1.769
 1956SOL  MW    7824   3.540   2.332   1.707
 1957SOL  OW    7825   3.509   2.283   2.011
 1957SOL  HW1   7826   3.485   2.244   2.095
 1957SOL  HW2   7827   3.601   2.261   1.999
 1957SOL  MW    7828   3.517   2.275   2.020
 1958SOL  OW    7829   3.522   2.277   2.280
 1958SOL  HW1   7830   3.536   2.322   2.197
 1958SOL  HW2   7831   3.552   2.188   2.265
 1958SOL  MW    7832   3.527   2.272   2.267
 1959SOL  OW    7833   3.512   2.306   2.624
 1959SOL  HW1   7834   3.448   2.237   2.645
 1959SOL  HW2   7835   3.471   2.356   2.553
 1959SOL  MW    7836   3.498   2.303   2.618
 1960SOL  OW    7837   3.513   2.325   2.906
 1960SOL  HW1   7838   3.517   2.317   2.810
 1960SOL  HW2   7839   3.604   2.331   2.934
 1960SOL  MW    7840   3.525   2.324   2.897
 1961SOL  OW    7841   3.523   2.286   3.254
 1961SOL  HW1   7842   3.595   2.346   3.233
 1961SOL  HW2   7843   3.546   2.205   3.208
 1961SOL  MW    7844   3.535   2.283   3.245
 1962SOL  OW    7845   3.575   2.307   3.502
 1962SOL  HW1   7846   3.566   2.396   3.466
 1962SOL  HW2   7847   3.522   2.308   3.582
 1962SOL  MW    7848   3.567   2.318   3.507
 1963SOL  OW    7849   3.519   2.280   3.874
 1963SOL  HW1   7850   3.583   2.320   3.933
 1963SOL  HW2   7851   3.438   2.279   3.924
 1963SOL  MW    7852   3.517   2.285   3.888
 1964SOL  OW    7853   3.505   2.653   0.161
 1964SOL  HW1   7854   3.512   2.574   0.215
 1964SOL  HW2   7855   3.412   2.660   0.142
 1964SOL  MW    7856   3.494   2.644   0.165
 1965SOL  OW    7857   3.540   2.643   0.424
 1965SOL  HW1   7858   3.461   2.658   0.372
 1965SOL  HW2   7859   3.512   2.586   0.495
 1965SOL  MW    7860   3.526   2.638   0.426
 1966SOL  OW    7861   3.561   2.585   0.796
 1966SOL  HW1   7862   3.631   2.613   0.738
 1966SOL  HW2   7863   3.596   2.507   0.840
 1966SOL  MW    7864   3.574   2.578   0.795
 1967SOL  OW    7865   3.541   2.580   1.104
 1967SOL  HW1   7866   3.615   2.560   1.047
 1967SOL  HW2   7867   3.469   2.600   1.043
 1967SOL  MW    7868   3.541   2.580   1.089
 1968SOL  OW    7869   3.501   2.586   1.408
 1968SOL  HW1   7870   3.554   2.666   1.401
 1968SOL  HW2   7871   3.454   2.597   1.492
 1968SOL  MW    7872   3.502   2.598   1.418
 1969SOL  OW    7873   3.536   2.646   1.703
 1969SOL  HW1   7874   3.454   2.620   1.746
 1969SOL  HW2   7875   3.560   2.570   1.650
 1969SOL  MW    7876   3.528   2.633   1.702
 1970SOL  OW    7877   3.548   2.599   1.971
 1970SOL  HW1   7878   3.553   2.592   1.875
 1970SOL  HW2   7879   3.639   2.595   2.000
 1970SOL  MW    7880   3.561   2.597   1.962
 1971SOL  OW    7881   3.575   2.584   2.310
 1971SOL  HW1   7882   3.637   2.590   2.237
 1971SOL  HW2   7883   3.562   2.490   2.323
 1971SOL  MW    7884   3.582   2.573   2.302
 1972SOL  OW    7885   3.520   2.597   2.623
 1972SOL  HW1   7886   3.558   2.570   2.539
 1972SOL  HW2   7887   3.459   2.667   2.600
 1972SOL  MW    7888   3.517   2.602   2.609
 1973SOL  OW    7889   3.562   2.638   2.953
 1973SOL  HW1   7890   3.590   2.729   2.945
 1973SOL  HW2   7891   3.531   2.629   3.043
 1973SOL  MW    7892   3.562   2.648   2.963
 1974SOL  OW    7893   3.522   2.613   3.192
 1974SOL  HW1   7894   3.521   2.521   3.218
 1974SOL  HW2   7895   3.526   2.610   3.096
 1974SOL  MW    7896   3.522   2.601   3.183
 1975SOL  OW    7897   3.558   2.600   3.543
 1975SOL  HW1   7898   3.501   2.618   3.469
 1975SOL  HW2   7899   3.503   2.615   3.620
 1975SOL  MW    7900   3.544   2.604   3.544
 1976SOL  OW    7901   3.512   2.641   3.872
 1976SOL  HW1   7902   3.446   2.707   3.894
 1976SOL  HW2   7903   3.569   2.685   3.808
 1976SOL  MW    7904   3.511   2.655   3.866
 1977SOL  OW    7905   3.569   2.887   0.193
 1977SOL  HW1   7906   3.598   2.803   0.158
 1977SOL  HW2   7907   3.649   2.937   0.205
 1977SOL  MW    7908   3.583   2.882   0.190
 1978SOL  OW    7909   3.518   2.908   0.441
 1978SOL  HW1   7910   3.477   2.907   0.355
 1978SOL  HW2   7911   3.522   2.816   0.467
 1978SOL  MW    7912   3.513   2.896   0.434
 1979SOL  OW    7913   3.520   2.927   0.748
 1979SOL  HW1   7914   3.605   2.960   0.778
 1979SOL  HW2   7915   3.522   2.834   0.769
 1979SOL  MW    7916   3.531   2.919   0.755
 1980SOL  OW    7917   3.530   2.936   1.104
 1980SOL  HW1   7918   3.438   2.959   1.115
 1980SOL  HW2   7919   3.550   2.961   1.014
 1980SOL  MW    7920   3.521   2.942   1.094
 1981SOL  OW    7921   3.554   2.931   1.356
 1981SOL  HW1   7922   3.602   3.014   1.355
 1981SOL  HW2   7923   3.465   2.953   1.329
 1981SOL  MW    7924   3.549   2.944   1.353
 1982SOL  OW    7925   3.564   2.886   1.673
 1982SOL  HW1   7926   3.532   2.853   1.757
 1982SOL  HW2   7927   3.642   2.937   1.696
 1982SOL  MW    7928   3.570   2.888   1.687
 1983SOL  OW    7929   3.503   2.936   1.989
 1983SOL  HW1   7930   3.518   3.031   1.985
 1983SOL  HW2   7931   3.467   2.922   2.077
 1983SOL  MW    7932   3.500   2.947   2.000
 1984SOL  OW    7933   3.551   2.911   2.304
 1984SOL  HW1   7934   3.570   2.994   2.348
 1984SOL  HW2   7935   3.635   2.879   2.273
 1984SOL  MW    7936   3.564   2.917   2.306
 1985SOL  OW    7937   3.535   2.887   2.610
 1985SOL  HW1   7938   3.518   2.931   2.527
 1985SOL  HW2   7939   3.519   2.953   2.677
 1985SOL  MW    7940   3.531   2.901   2.608
 1986SOL  OW    7941   3.550   2.927   2.889
 1986SOL  HW1   7942   3.531   2.833   2.884
 1986SOL  HW2   7943   3.492   2.966   2.824
 1986SOL  MW    7944   3.540   2.920   2.880
 1987SOL  OW    7945   3.552   2.908   3.192
 1987SOL  HW1   7946   3.629   2.916   3.249
 1987SOL  HW2   7947   3.549   2.990   3.143
 1987SOL  MW    7948   3.561   2.919   3.193
 1988SOL  OW    7949   3.511   2.923   3.523
 1988SOL  HW1   7950   3.420   2.913   3.495
 1988SOL  HW2   7951   3.517   3.014   3.553
 1988SOL  MW    7952   3.500   2.933   3.523
 1989SOL  OW    7953   3.554   2.902   3.868
 1989SOL  HW1   7954   3.624   2.967   3.859
 1989SOL  HW2   7955   3.519   2.892   3.780
 1989SOL  MW    7956   3.558   2.909   3.855
 1990SOL  OW    7957   3.521   3.240   0.178
 1990SOL  HW1   7958   3.474   3.315   0.215
 1990SOL  HW2   7959   3.505   3.246   0.084
 1990SOL  MW    7960   3.513   3.251   0.170
 1991SOL  OW    7961   3.529   3.195   0.464
 1991SOL  HW1   7962   3.546   3.289   0.469
 1991SOL  HW2   7963   3.598   3.155   0.517
 1991SOL  MW    7964   3.540   3.201   0.472
 1992SOL  OW    7965   3.578   3.268   0.747
 1992SOL  HW1   7966   3.673   3.255   0.740
 1992SOL  HW2   7967   3.559   3.336   0.683
 1992SOL  MW    7968   3.588   3.275   0.738
 1993SOL  OW    7969   3.559   3.218   1.050
 1993SOL  HW1   7970   3.599   3.156   1.111
 1993SOL  HW2   7971   3.538   3.294   1.104
 1993SOL  MW    7972   3.561   3.220   1.064
 1994SOL  OW    7973   3.552   3.231   1.388
 1994SOL  HW1   7974   3.503   3.312   1.405
 1994SOL  HW2   7975   3.541   3.178   1.467
 1994SOL  MW    7976   3.544   3.234   1.400
 1995SOL  OW    7977   3.565   3.218   1.706
 1995SOL  HW1   7978   3.612   3.156   1.761
 1995SOL  HW2   7979   3.632   3.279   1.676
 1995SOL  MW    7980   3.579   3.218   1.709
 1996SOL  OW    7981   3.528   3.194   1.990
 1996SOL  HW1   7982   3.514   3.140   2.068
 1996SOL  HW2   7983   3.557   3.278   2.025
 1996SOL  MW    7984   3.530   3.198   2.005
 1997SOL  OW    7985   3.574   3.229   2.276
 1997SOL  HW1   7986   3.560   3.323   2.286
 1997SOL  HW2   7987   3.606   3.220   2.187
 1997SOL  MW    7988   3.577   3.240   2.266
 1998SOL  OW    7989   3.553   3.268   2.648
 1998SOL  HW1   7990   3.545   3.361   2.628
 1998SOL  HW2   7991   3.501   3.255   2.727
 1998SOL  MW    7992   3.546   3.278   2.656
 1999SOL  OW    7993   3.544   3.221   2.930
 1999SOL  HW1   7994   3.615   3.175   2.885
 1999SOL  HW2   7995   3.522   3.294   2.871
 1999SOL  MW    7996   3.550   3.224   2.916
 2000SOL  OW    7997   3.564   3.260   3.256
 2000SOL  HW1   7998   3.610   3.342   3.239
 2000SOL  HW2   7999   3.515   3.276   3.337
 2000SOL  MW    8000   3.563   3.272   3.264
 2001SOL  OW    8001   3.535   3.200   3.544
 2001SOL  HW1   8002   3.488   3.225   3.624
 2001SOL  HW2   8003   3.512   3.108   3.531
 2001SOL  MW    8004   3.526   3.192   3.552
 2002SOL  OW    8005   3.511   3.196   3.846
 2002SOL  HW1   8006   3.417   3.183   3.857
 2002SOL  HW2   8007   3.530   3.277   3.893
 2002SOL  MW    8008   3.501   3.204   3.853
 2003SOL  OW    8009   3.551   3.567   0.176
 2003SOL  HW1   8010   3.623   3.576   0.239
 2003SOL  HW2   8011   3.531   3.656   0.149
 2003SOL  MW    8012   3.558   3.579   0.181
 2004SOL  OW    8013   3.567   3.559   0.478
 2004SOL  HW1   8014   3.499   3.498   0.505
 2004SOL  HW2   8015   3.569   3.625   0.547
 2004SOL  MW    8016   3.559   3.560   0.490
 2005SOL  OW    8017   3.499   3.549   0.739
 2005SOL  HW1   8018   3.503   3.549   0.643
 2005SOL  HW2   8019   3.575   3.496   0.765
 2005SOL  MW    8020   3.509   3.542   0.730
 2006SOL  OW    8021   3.503   3.511   1.103
 2006SOL  HW1   8022   3.539   3.518   1.191
 2006SOL  HW2   8023   3.416   3.551   1.109
 2006SOL  MW    8024   3.497   3.517   1.115
 2007SOL  OW    8025   3.558   3.574   1.423
 2007SOL  HW1   8026   3.550   3.537   1.511
 2007SOL  HW2   8027   3.477   3.549   1.378
 2007SOL  MW    8028   3.547   3.566   1.428
 2008SOL  OW    8029   3.570   3.509   1.723
 2008SOL  HW1   8030   3.619   3.519   1.804
 2008SOL  HW2   8031   3.598   3.424   1.688
 2008SOL  MW    8032   3.580   3.499   1.729
 2009SOL  OW    8033   3.566   3.568   1.972
 2009SOL  HW1   8034   3.490   3.625   1.990
 2009SOL  HW2   8035   3.529   3.480   1.968
 2009SOL  MW    8036   3.551   3.564   1.974
 2010SOL  OW    8037   3.508   3.572   2.282
 2010SOL  HW1   8038   3.596   3.573   2.319
 2010SOL  HW2   8039   3.449   3.576   2.357
 2010SOL  MW    8040   3.512   3.573   2.296
 2011SOL  OW    8041   3.528   3.535   2.585
 2011SOL  HW1   8042   3.448   3.587   2.585
 2011SOL  HW2   8043   3.511   3.465   2.649
 2011SOL  MW    8044   3.515   3.533   2.593
 2012SOL  OW    8045   3.500   3.578   2.953
 2012SOL  HW1   8046   3.408   3.551   2.954
 2012SOL  HW2   8047   3.549   3.498   2.972
 2012SOL  MW    8048   3.495   3.564   2.956
 2013SOL  OW    8049   3.571   3.521   3.208
 2013SOL  HW1   8050   3.592   3.518   3.115
 2013SOL  HW2   8051   3.655   3.540   3.251
 2013SOL  MW    8052   3.585   3.523   3.202
 2014SOL  OW    8053   3.533   3.535   3.499
 2014SOL  HW1   8054   3.549   3.629   3.506
 2014SOL  HW2   8055   3.605   3.494   3.545
 2014SOL  MW    8056   3.544   3.542   3.506
 2015SOL  OW    8057   3.561   3.578   3.848
 2015SOL  HW1   8058   3.589   3.547   3.762
 2015SOL  HW2   8059   3.558   3.674   3.840
 2015SOL  MW    8060   3.564   3.586   3.836
 2016SOL  OW    8061   3.530   3.838   0.122
 2016SOL  HW1   8062   3.458   3.778   0.145
 2016SOL  HW2   8063   3.607   3.801   0.165
 2016SOL  MW    8064   3.530   3.825   0.130
 2017SOL  OW    8065   3.520   3.846   0.456
 2017SOL  HW1   8066   3.599   3.900   0.457
 2017SOL  HW2   8067   3.448   3.908   0.472
 2017SOL  MW    8068   3.521   3.861   0.458
 2018SOL  OW    8069   3.542   3.874   0.747
 2018SOL  HW1   8070   3.633   3.847   0.756
 2018SOL  HW2   8071   3.545   3.948   0.687
 2018SOL  MW    8072   3.554   3.880   0.741
 2019SOL  OW    8073   3.501   3.809   1.048
 2019SOL  HW1   8074   3.419   3.760   1.051
 2019SOL  HW2   8075   3.533   3.795   0.959
 2019SOL  MW    8076   3.494   3.801   1.037
 2020SOL  OW    8077   3.544   3.871   1.416
 2020SOL  HW1   8078   3.624   3.895   1.463
 2020SOL  HW2   8079   3.573   3.806   1.351
 2020SOL  MW    8080   3.558   3.866   1.413
 2021SOL  OW    8081   3.549   3.838   1.665
 2021SOL  HW1   8082   3.563   3.878   1.578
 2021SOL  HW2   8083   3.465   3.794   1.658
 2021SOL  MW    8084   3.540   3.838   1.653
 2022SOL  OW    8085   3.531   3.833   2.030
 2022SOL  HW1   8086   3.590   3.863   2.098
 2022SOL  HW2   8087   3.587   3.816   1.954
 2022SOL  MW    8088   3.545   3.834   2.029
 2023SOL  OW    8089   3.537   3.824   2.291
 2023SOL  HW1   8090   3.576   3.806   2.376
 2023SOL  HW2   8091   3.447   3.849   2.310
 2023SOL  MW    8092   3.531   3.825   2.304
 2024SOL  OW    8093   3.509   3.880   2.579
 2024SOL  HW1   8094   3.428   3.857   2.534
 2024SOL  HW2   8095   3.558   3.798   2.584
 2024SOL  MW    8096   3.505   3.866   2.574
 2025SOL  OW    8097   3.499   3.821   2.948
 2025SOL  HW1   8098   3.461   3.907   2.933
 2025SOL  HW2   8099   3.448   3.762   2.892
 2025SOL  MW    8100   3.488   3.824   2.939
 2026SOL  OW    8101   3.540   3.856   3.219
 2026SOL  HW1   8102   3.497   3.794   3.277
 2026SOL  HW2   8103   3.628   3.821   3.208
 2026SOL  MW    8104   3.546   3.844   3.225
 2027SOL  OW    8105   3.504   3.875   3.514
 2027SOL  HW1   8106   3.533   3.804   3.456
 2027SOL  HW2   8107   3.409   3.864   3.519
 2027SOL  MW    8108   3.496   3.864   3.507
 2028SOL  OW    8109   3.501   3.852   3.813
 2028SOL  HW1   8110   3.517   3.805   3.894
 2028SOL  HW2   8111   3.574   3.827   3.756
 2028SOL  MW    8112   3.512   3.843   3.816
 2029SOL  OW    8113   3.814   0.178   0.153
 2029SOL  HW1   8114   3.781   0.146   0.069
 2029SOL  HW2   8115   3.909   0.181   0.142
 2029SOL  MW    8116   3.822   0.174   0.141
 2030SOL  OW    8117   3.825   0.142   0.480
 2030SOL  HW1   8118   3.892   0.210   0.479
 2030SOL  HW2   8119   3.874   0.061   0.498
 2030SOL  MW    8120   3.840   0.140   0.482
 2031SOL  OW    8121   3.811   0.123   0.779
 2031SOL  HW1   8122   3.863   0.197   0.746
 2031SOL  HW2   8123   3.800   0.066   0.702
 2031SOL  MW    8124   3.817   0.125   0.765
 2032SOL  OW    8125   3.855   0.192   1.067
 2032SOL  HW1   8126   3.889   0.151   0.987
 2032SOL  HW2   8127   3.900   0.147   1.138
 2032SOL  MW    8128   3.865   0.181   1.066
 2033SOL  OW    8129   3.811   0.157   1.396
 2033SOL  HW1   8130   3.825   0.111   1.313
 2033SOL  HW2   8131   3.877   0.227   1.396
 2033SOL  MW    8132   3.822   0.160   1.385
 2034SOL  OW    8133   3.817   0.158   1.668
 2034SOL  HW1   8134   3.855   0.244   1.647
 2034SOL  HW2   8135   3.890   0.109   1.707
 2034SOL  MW    8136   3.831   0.163   1.670
 2035SOL  OW    8137   3.874   0.181   1.994
 2035SOL  HW1   8138   3.925   0.222   1.925
 2035SOL  HW2   8139   3.935   0.170   2.067
 2035SOL  MW    8140   3.888   0.185   1.995
 2036SOL  OW    8141   3.883   0.192   2.278
 2036SOL  HW1   8142   3.797   0.214   2.243
 2036SOL  HW2   8143   3.875   0.207   2.372
 2036SOL  MW    8144   3.871   0.197   2.286
 2037SOL  OW    8145   3.836   0.162   2.582
 2037SOL  HW1   8146   3.834   0.227   2.512
 2037SOL  HW2   8147   3.808   0.210   2.660
 2037SOL  MW    8148   3.832   0.176   2.583
 2038SOL  OW    8149   3.837   0.135   2.959
 2038SOL  HW1   8150   3.819   0.200   3.027
 2038SOL  HW2   8151   3.750   0.105   2.931
 2038SOL  MW    8152   3.823   0.139   2.964
 2039SOL  OW    8153   3.839   0.175   3.222
 2039SOL  HW1   8154   3.786   0.098   3.244
 2039SOL  HW2   8155   3.804   0.204   3.137
 2039SOL  MW    8156   3.828   0.169   3.214
 2040SOL  OW    8157   3.817   0.183   3.498
 2040SOL  HW1   8158   3.855   0.161   3.413
 2040SOL  HW2   8159   3.863   0.262   3.526
 2040SOL  MW    8160   3.827   0.190   3.491
 2041SOL  OW    8161   3.811   0.143   3.861
 2041SOL  HW1   8162   3.859   0.061   3.873
 2041SOL  HW2   8163   3.873   0.212   3.885
 2041SOL  MW    8164   3.825   0.141   3.866
 2042SOL  OW    8165   3.833   0.427   0.139
 2042SOL  HW1   8166   3.828   0.339   0.102
 2042SOL  HW2   8167   3.923   0.456   0.120
 2042SOL  MW    8168   3.844   0.419   0.132
 2043SOL  OW    8169   3.826   0.422   0.464
 2043SOL  HW1   8170   3.753   0.422   0.526
 2043SOL  HW2   8171   3.785   0.435   0.379
 2043SOL  MW    8172   3.811   0.424   0.461
 2044SOL  OW    8173   3.815   0.445   0.781
 2044SOL  HW1   8174   3.837   0.529   0.740
 2044SOL  HW2   8175   3.860   0.380   0.726
 2044SOL  MW    8176   3.824   0.447   0.768
 2045SOL  OW    8177   3.864   0.443   1.063
 2045SOL  HW1   8178   3.904   0.357   1.048
 2045SOL  HW2   8179   3.813   0.460   0.984
 2045SOL  MW    8180   3.863   0.434   1.051
 2046SOL  OW    8181   3.826   0.498   1.360
 2046SOL  HW1   8182   3.745   0.517   1.407
 2046SOL  HW2   8183   3.827   0.403   1.351
 2046SOL  MW    8184   3.816   0.488   1.365
 2047SOL  OW    8185   3.821   0.457   1.667
 2047SOL  HW1   8186   3.792   0.402   1.740
 2047SOL  HW2   8187   3.803   0.547   1.697
 2047SOL  MW    8188   3.815   0.462   1.681
 2048SOL  OW    8189   3.819   0.429   2.011
 2048SOL  HW1   8190   3.913   0.440   2.002
 2048SOL  HW2   8191   3.805   0.415   2.105
 2048SOL  MW    8192   3.829   0.429   2.022
 2049SOL  OW    8193   3.855   0.474   2.330
 2049SOL  HW1   8194   3.925   0.426   2.284
 2049SOL  HW2   8195   3.782   0.412   2.332
 2049SOL  MW    8196   3.855   0.460   2.324
 2050SOL  OW    8197   3.832   0.495   2.634
 2050SOL  HW1   8198   3.863   0.583   2.613
 2050SOL  HW2   8199   3.889   0.466   2.705
 2050SOL  MW    8200   3.844   0.503   2.640
 2051SOL  OW    8201   3.871   0.479   2.912
 2051SOL  HW1   8202   3.862   0.409   2.847
 2051SOL  HW2   8203   3.963   0.504   2.907
 2051SOL  MW    8204   3.881   0.473   2.903
 2052SOL  OW    8205   3.829   0.455   3.199
 2052SOL  HW1   8206   3.870   0.429   3.116
 2052SOL  HW2   8207   3.735   0.446   3.182
 2052SOL  MW    8208   3.822   0.451   3.186
 2053SOL  OW    8209   3.842   0.425   3.499
 2053SOL  HW1   8210   3.923   0.430   3.551
 2053SOL  HW2   8211   3.858   0.484   3.425
 2053SOL  MW    8212   3.855   0.433   3.496
 2054SOL  OW    8213   3.881   0.477   3.851
 2054SOL  HW1   8214   3.816   0.500   3.785
 2054SOL  HW2   8215   3.904   0.386   3.831
 2054SOL  MW    8216   3.875   0.468   3.840
 2055SOL  OW    8217   3.833   0.775   0.185
 2055SOL  HW1   8218   3.921   0.738   0.198
 2055SOL  HW2   8219   3.795   0.776   0.273
 2055SOL  MW    8220   3.840   0.770   0.198
 2056SOL  OW    8221   3.858   0.777   0.458
 2056SOL  HW1   8222   3.927   0.715   0.482
 2056SOL  HW2   8223   3.897   0.829   0.388
 2056SOL  MW    8224   3.872   0.776   0.452
 2057SOL  OW    8225   3.834   0.785   0.808
 2057SOL  HW1   8226   3.927   0.799   0.822
 2057SOL  HW2   8227   3.791   0.846   0.868
 2057SOL  MW    8228   3.840   0.795   0.817
 2058SOL  OW    8229   3.840   0.761   1.071
 2058SOL  HW1   8230   3.925   0.768   1.115
 2058SOL  HW2   8231   3.801   0.848   1.079
 2058SOL  MW    8232   3.846   0.773   1.078
 2059SOL  OW    8233   3.840   0.808   1.401
 2059SOL  HW1   8234   3.880   0.722   1.397
 2059SOL  HW2   8235   3.852   0.845   1.314
 2059SOL  MW    8236   3.847   0.802   1.389
 2060SOL  OW    8237   3.835   0.759   1.687
 2060SOL  HW1   8238   3.879   0.821   1.628
 2060SOL  HW2   8239   3.743   0.761   1.660
 2060SOL  MW    8240   3.829   0.767   1.676
 2061SOL  OW    8241   3.809   0.771   2.025
 2061SOL  HW1   8242   3.848   0.851   2.060
 2061SOL  HW2   8243   3.877   0.705   2.036
 2061SOL  MW    8244   3.823   0.773   2.031
 2062SOL  OW    8245   3.859   0.745   2.326
 2062SOL  HW1   8246   3.911   0.822   2.303
 2062SOL  HW2   8247   3.817   0.720   2.244
 2062SOL  MW    8248   3.860   0.752   2.313
 2063SOL  OW    8249   3.864   0.750   2.625
 2063SOL  HW1   8250   3.877   0.697   2.546
 2063SOL  HW2   8251   3.862   0.687   2.697
 2063SOL  MW    8252   3.865   0.735   2.624
 2064SOL  OW    8253   3.855   0.796   2.894
 2064SOL  HW1   8254   3.843   0.702   2.888
 2064SOL  HW2   8255   3.928   0.808   2.955
 2064SOL  MW    8256   3.863   0.786   2.901
 2065SOL  OW    8257   3.822   0.768   3.194
 2065SOL  HW1   8258   3.859   0.814   3.270
 2065SOL  HW2   8259   3.781   0.837   3.142
 2065SOL  MW    8260   3.821   0.783   3.197
 2066SOL  OW    8261   3.839   0.792   3.510
 2066SOL  HW1   8262   3.749   0.802   3.481
 2066SOL  HW2   8263   3.836   0.807   3.605
 2066SOL  MW    8264   3.827   0.795   3.519
 2067SOL  OW    8265   3.843   0.808   3.847
 2067SOL  HW1   8266   3.874   0.858   3.922
 2067SOL  HW2   8267   3.922   0.773   3.807
 2067SOL  MW    8268   3.857   0.810   3.851
 2068SOL  OW    8269   3.846   1.082   0.129
 2068SOL  HW1   8270   3.822   1.159   0.078
 2068SOL  HW2   8271   3.870   1.016   0.063
 2068SOL  MW    8272   3.846   1.083   0.114
 2069SOL  OW    8273   3.818   1.091   0.453
 2069SOL  HW1   8274   3.753   1.053   0.512
 2069SOL  HW2   8275   3.825   1.182   0.482
 2069SOL  MW    8276   3.811   1.098   0.464
 2070SOL  OW    8277   3.829   1.039   0.797
 2070SOL  HW1   8278   3.742   1.075   0.783
 2070SOL  HW2   8279   3.877   1.109   0.843
 2070SOL  MW    8280   3.824   1.053   0.801
 2071SOL  OW    8281   3.809   1.097   1.067
 2071SOL  HW1   8282   3.714   1.106   1.058
 2071SOL  HW2   8283   3.845   1.128   0.984
 2071SOL  MW    8284   3.801   1.102   1.056
 2072SOL  OW    8285   3.854   1.057   1.357
 2072SOL  HW1   8286   3.787   1.025   1.297
 2072SOL  HW2   8287   3.848   1.152   1.351
 2072SOL  MW    8288   3.845   1.065   1.349
 2073SOL  OW    8289   3.849   1.093   1.668
 2073SOL  HW1   8290   3.850   1.137   1.753
 2073SOL  HW2   8291   3.823   1.003   1.688
 2073SOL  MW    8292   3.846   1.087   1.681
 2074SOL  OW    8293   3.841   1.072   1.977
 2074SOL  HW1   8294   3.777   1.011   2.012
 2074SOL  HW2   8295   3.797   1.157   1.981
 2074SOL  MW    8296   3.827   1.075   1.982
 2075SOL  OW    8297   3.851   1.049   2.308
 2075SOL  HW1   8298   3.936   1.005   2.319
 2075SOL  HW2   8299   3.861   1.102   2.230
 2075SOL  MW    8300   3.863   1.050   2.300
 2076SOL  OW    8301   3.815   1.076   2.600
 2076SOL  HW1   8302   3.798   1.089   2.693
 2076SOL  HW2   8303   3.808   0.981   2.588
 2076SOL  MW    8304   3.812   1.065   2.611
 2077SOL  OW    8305   3.842   1.072   2.956
 2077SOL  HW1   8306   3.838   1.164   2.978
 2077SOL  HW2   8307   3.830   1.069   2.861
 2077SOL  MW    8308   3.840   1.083   2.946
 2078SOL  OW    8309   3.845   1.102   3.209
 2078SOL  HW1   8310   3.836   1.018   3.165
 2078SOL  HW2   8311   3.899   1.084   3.286
 2078SOL  MW    8312   3.851   1.089   3.213
 2079SOL  OW    8313   3.834   1.043   3.532
 2079SOL  HW1   8314   3.863   1.013   3.618
 2079SOL  HW2   8315   3.739   1.032   3.533
 2079SOL  MW    8316   3.826   1.038   3.543
 2080SOL  OW    8317   3.860   1.104   3.851
 2080SOL  HW1   8318   3.783   1.160   3.845
 2080SOL  HW2   8319   3.857   1.051   3.772
 2080SOL  MW    8320   3.849   1.104   3.840
 2081SOL  OW    8321   3.857   1.359   0.117
 2081SOL  HW1   8322   3.808   1.437   0.091
 2081SOL  HW2   8323   3.902   1.332   0.037
 2081SOL  MW    8324   3.857   1.365   0.103
 2082SOL  OW    8325   3.869   1.358   0.429
 2082SOL  HW1   8326   3.877   1.429   0.365
 2082SOL  HW2   8327   3.940   1.297   0.406
 2082SOL  MW    8328   3.879   1.359   0.418
 2083SOL  OW    8329   3.881   1.422   0.779
 2083SOL  HW1   8330   3.920   1.509   0.777
 2083SOL  HW2   8331   3.956   1.362   0.780
 2083SOL  MW    8332   3.896   1.425   0.779
 2084SOL  OW    8333   3.836   1.411   1.053
 2084SOL  HW1   8334   3.753   1.431   1.011
 2084SOL  HW2   8335   3.873   1.497   1.075
 2084SOL  MW    8336   3.830   1.425   1.051
 2085SOL  OW    8337   3.841   1.373   1.418
 2085SOL  HW1   8338   3.862   1.295   1.367
 2085SOL  HW2   8339   3.908   1.436   1.393
 2085SOL  MW    8340   3.852   1.371   1.408
 2086SOL  OW    8341   3.880   1.397   1.661
 2086SOL  HW1   8342   3.830   1.461   1.712
 2086SOL  HW2   8343   3.971   1.417   1.680
 2086SOL  MW    8344   3.885   1.408   1.670
 2087SOL  OW    8345   3.845   1.364   2.031
 2087SOL  HW1   8346   3.750   1.357   2.043
 2087SOL  HW2   8347   3.868   1.450   2.068
 2087SOL  MW    8348   3.836   1.374   2.037
 2088SOL  OW    8349   3.817   1.349   2.324
 2088SOL  HW1   8350   3.887   1.383   2.267
 2088SOL  HW2   8351   3.828   1.254   2.321
 2088SOL  MW    8352   3.827   1.341   2.316
 2089SOL  OW    8353   3.842   1.412   2.581
 2089SOL  HW1   8354   3.756   1.400   2.541
 2089SOL  HW2   8355   3.896   1.454   2.514
 2089SOL  MW    8356   3.838   1.416   2.567
 2090SOL  OW    8357   3.870   1.348   2.885
 2090SOL  HW1   8358   3.794   1.402   2.863
 2090SOL  HW2   8359   3.833   1.268   2.923
 2090SOL  MW    8360   3.856   1.344   2.887
 2091SOL  OW    8361   3.843   1.362   3.238
 2091SOL  HW1   8362   3.815   1.274   3.263
 2091SOL  HW2   8363   3.802   1.378   3.153
 2091SOL  MW    8364   3.834   1.353   3.230
 2092SOL  OW    8365   3.808   1.347   3.557
 2092SOL  HW1   8366   3.827   1.337   3.650
 2092SOL  HW2   8367   3.740   1.415   3.553
 2092SOL  MW    8368   3.802   1.355   3.568
 2093SOL  OW    8369   3.823   1.397   3.866
 2093SOL  HW1   8370   3.728   1.402   3.873
 2093SOL  HW2   8371   3.842   1.428   3.777
 2093SOL  MW    8372   3.813   1.402   3.856
 2094SOL  OW    8373   3.811   1.714   0.135
 2094SOL  HW1   8374   3.845   1.633   0.098
 2094SOL  HW2   8375   3.733   1.734   0.083
 2094SOL  MW    8376   3.805   1.706   0.124
 2095SOL  OW    8377   3.837   1.659   0.489
 2095SOL  HW1   8378   3.760   1.708   0.517
 2095SOL  HW2   8379   3.804   1.593   0.429
 2095SOL  MW    8380   3.823   1.657   0.485
 2096SOL  OW    8381   3.851   1.693   0.807
 2096SOL  HW1   8382   3.832   1.733   0.722
 2096SOL  HW2   8383   3.785   1.625   0.816
 2096SOL  MW    8384   3.840   1.689   0.797
 2097SOL  OW    8385   3.833   1.724   1.094
 2097SOL  HW1   8386   3.826   1.689   1.005
 2097SOL  HW2   8387   3.906   1.786   1.091
 2097SOL  MW    8388   3.841   1.727   1.083
 2098SOL  OW    8389   3.880   1.725   1.424
 2098SOL  HW1   8390   3.914   1.813   1.442
 2098SOL  HW2   8391   3.920   1.670   1.492
 2098SOL  MW    8392   3.890   1.729   1.435
 2099SOL  OW    8393   3.817   1.716   1.717
 2099SOL  HW1   8394   3.754   1.663   1.766
 2099SOL  HW2   8395   3.790   1.705   1.625
 2099SOL  MW    8396   3.805   1.708   1.711
 2100SOL  OW    8397   3.858   1.675   2.037
 2100SOL  HW1   8398   3.810   1.647   1.959
 2100SOL  HW2   8399   3.833   1.611   2.104
 2100SOL  MW    8400   3.848   1.663   2.036
 2101SOL  OW    8401   3.823   1.692   2.309
 2101SOL  HW1   8402   3.782   1.608   2.329
 2101SOL  HW2   8403   3.770   1.728   2.237
 2101SOL  MW    8404   3.811   1.686   2.303
 2102SOL  OW    8405   3.819   1.710   2.582
 2102SOL  HW1   8406   3.795   1.748   2.667
 2102SOL  HW2   8407   3.762   1.754   2.519
 2102SOL  MW    8408   3.809   1.721   2.585
 2103SOL  OW    8409   3.862   1.720   2.911
 2103SOL  HW1   8410   3.894   1.753   2.995
 2103SOL  HW2   8411   3.781   1.769   2.895
 2103SOL  MW    8412   3.855   1.731   2.920
 2104SOL  OW    8413   3.863   1.665   3.258
 2104SOL  HW1   8414   3.949   1.678   3.219
 2104SOL  HW2   8415   3.881   1.647   3.351
 2104SOL  MW    8416   3.876   1.664   3.265
 2105SOL  OW    8417   3.882   1.665   3.554
 2105SOL  HW1   8418   3.936   1.641   3.478
 2105SOL  HW2   8419   3.805   1.608   3.547
 2105SOL  MW    8420   3.879   1.654   3.543
 2106SOL  OW    8421   3.847   1.695   3.863
 2106SOL  HW1   8422   3.819   1.722   3.950
 2106SOL  HW2   8423   3.768   1.658   3.822
 2106SOL  MW    8424   3.833   1.694   3.869
 2107SOL  OW    8425   3.845   2.008   0.132
 2107SOL  HW1   8426   3.837   1.949   0.207
 2107SOL  HW2   8427   3.870   1.951   0.059
 2107SOL  MW    8428   3.847   1.993   0.133
 2108SOL  OW    8429   3.836   2.029   0.430
 2108SOL  HW1   8430   3.804   2.066   0.513
 2108SOL  HW2   8431   3.928   2.008   0.448
 2108SOL  MW    8432   3.844   2.031   0.443
 2109SOL  OW    8433   3.854   1.975   0.797
 2109SOL  HW1   8434   3.867   1.905   0.733
 2109SOL  HW2   8435   3.794   1.938   0.862
 2109SOL  MW    8436   3.848   1.961   0.797
 2110SOL  OW    8437   3.852   1.992   1.057
 2110SOL  HW1   8438   3.929   1.936   1.047
 2110SOL  HW2   8439   3.886   2.072   1.098
 2110SOL  MW    8440   3.867   1.995   1.061
 2111SOL  OW    8441   3.841   2.037   1.385
 2111SOL  HW1   8442   3.818   1.945   1.403
 2111SOL  HW2   8443   3.823   2.048   1.292
 2111SOL  MW    8444   3.836   2.026   1.376
 2112SOL  OW    8445   3.844   2.020   1.683
 2112SOL  HW1   8446   3.799   2.046   1.602
 2112SOL  HW2   8447   3.866   1.928   1.669
 2112SOL  MW    8448   3.841   2.011   1.671
 2113SOL  OW    8449   3.840   1.987   1.972
 2113SOL  HW1   8450   3.781   1.969   1.899
 2113SOL  HW2   8451   3.923   1.947   1.946
 2113SOL  MW    8452   3.843   1.980   1.959
 2114SOL  OW    8453   3.863   2.030   2.340
 2114SOL  HW1   8454   3.916   2.107   2.361
 2114SOL  HW2   8455   3.773   2.063   2.336
 2114SOL  MW    8456   3.859   2.044   2.342
 2115SOL  OW    8457   3.877   1.996   2.598
 2115SOL  HW1   8458   3.940   2.005   2.669
 2115SOL  HW2   8459   3.792   1.988   2.643
 2115SOL  MW    8460   3.874   1.996   2.613
 2116SOL  OW    8461   3.857   2.036   2.941
 2116SOL  HW1   8462   3.880   2.055   2.850
 2116SOL  HW2   8463   3.933   2.067   2.991
 2116SOL  MW    8464   3.870   2.043   2.936
 2117SOL  OW    8465   3.846   2.015   3.253
 2117SOL  HW1   8466   3.924   1.983   3.297
 2117SOL  HW2   8467   3.857   2.110   3.250
 2117SOL  MW    8468   3.857   2.023   3.258
 2118SOL  OW    8469   3.880   2.021   3.533
 2118SOL  HW1   8470   3.908   2.106   3.567
 2118SOL  HW2   8471   3.796   2.005   3.577
 2118SOL  MW    8472   3.873   2.030   3.543
 2119SOL  OW    8473   3.828   2.000   3.832
 2119SOL  HW1   8474   3.910   2.036   3.798
 2119SOL  HW2   8475   3.762   2.066   3.812
 2119SOL  MW    8476   3.830   2.013   3.825
 2120SOL  OW    8477   3.882   2.308   0.152
 2120SOL  HW1   8478   3.895   2.251   0.227
 2120SOL  HW2   8479   3.953   2.372   0.157
 2120SOL  MW    8480   3.892   2.309   0.162
 2121SOL  OW    8481   3.834   2.319   0.463
 2121SOL  HW1   8482   3.813   2.237   0.419
 2121SOL  HW2   8483   3.927   2.332   0.447
 2121SOL  MW    8484   3.843   2.310   0.455
 2122SOL  OW    8485   3.816   2.337   0.758
 2122SOL  HW1   8486   3.768   2.268   0.804
 2122SOL  HW2   8487   3.811   2.313   0.665
 2122SOL  MW    8488   3.810   2.325   0.752
 2123SOL  OW    8489   3.841   2.284   1.081
 2123SOL  HW1   8490   3.849   2.374   1.114
 2123SOL  HW2   8491   3.855   2.229   1.158
 2123SOL  MW    8492   3.844   2.289   1.095
 2124SOL  OW    8493   3.862   2.338   1.349
 2124SOL  HW1   8494   3.933   2.311   1.291
 2124SOL  HW2   8495   3.883   2.298   1.433
 2124SOL  MW    8496   3.874   2.330   1.352
 2125SOL  OW    8497   3.884   2.324   1.675
 2125SOL  HW1   8498   3.827   2.326   1.599
 2125SOL  HW2   8499   3.825   2.309   1.749
 2125SOL  MW    8500   3.869   2.322   1.675
 2126SOL  OW    8501   3.823   2.291   2.030
 2126SOL  HW1   8502   3.730   2.310   2.016
 2126SOL  HW2   8503   3.868   2.354   1.974
 2126SOL  MW    8504   3.816   2.302   2.021
 2127SOL  OW    8505   3.829   2.305   2.324
 2127SOL  HW1   8506   3.921   2.308   2.295
 2127SOL  HW2   8507   3.780   2.340   2.250
 2127SOL  MW    8508   3.835   2.310   2.311
 2128SOL  OW    8509   3.876   2.320   2.636
 2128SOL  HW1   8510   3.883   2.240   2.688
 2128SOL  HW2   8511   3.794   2.360   2.664
 2128SOL  MW    8512   3.866   2.315   2.646
 2129SOL  OW    8513   3.820   2.338   2.905
 2129SOL  HW1   8514   3.775   2.256   2.925
 2129SOL  HW2   8515   3.912   2.320   2.925
 2129SOL  MW    8516   3.826   2.325   2.910
 2130SOL  OW    8517   3.816   2.346   3.207
 2130SOL  HW1   8518   3.827   2.358   3.301
 2130SOL  HW2   8519   3.881   2.279   3.184
 2130SOL  MW    8520   3.826   2.339   3.216
 2131SOL  OW    8521   3.817   2.318   3.524
 2131SOL  HW1   8522   3.800   2.224   3.512
 2131SOL  HW2   8523   3.882   2.322   3.594
 2131SOL  MW    8524   3.823   2.306   3.531
 2132SOL  OW    8525   3.817   2.316   3.867
 2132SOL  HW1   8526   3.809   2.410   3.853
 2132SOL  HW2   8527   3.891   2.307   3.926
 2132SOL  MW    8528   3.825   2.327   3.873
 2133SOL  OW    8529   3.870   2.588   0.158
 2133SOL  HW1   8530   3.892   2.554   0.245
 2133SOL  HW2   8531   3.871   2.511   0.102
 2133SOL  MW    8532   3.873   2.574   0.162
 2134SOL  OW    8533   3.871   2.588   0.438
 2134SOL  HW1   8534   3.939   2.643   0.477
 2134SOL  HW2   8535   3.822   2.648   0.382
 2134SOL  MW    8536   3.874   2.603   0.436
 2135SOL  OW    8537   3.806   2.617   0.745
 2135SOL  HW1   8538   3.800   2.561   0.822
 2135SOL  HW2   8539   3.899   2.640   0.739
 2135SOL  MW    8540   3.817   2.613   0.754
 2136SOL  OW    8541   3.864   2.652   1.054
 2136SOL  HW1   8542   3.870   2.598   0.975
 2136SOL  HW2   8543   3.785   2.622   1.098
 2136SOL  MW    8544   3.855   2.641   1.049
 2137SOL  OW    8545   3.858   2.592   1.346
 2137SOL  HW1   8546   3.868   2.637   1.262
 2137SOL  HW2   8547   3.817   2.657   1.403
 2137SOL  MW    8548   3.854   2.606   1.343
 2138SOL  OW    8549   3.867   2.610   1.728
 2138SOL  HW1   8550   3.793   2.662   1.760
 2138SOL  HW2   8551   3.826   2.531   1.692
 2138SOL  MW    8552   3.852   2.607   1.728
 2139SOL  OW    8553   3.849   2.588   1.996
 2139SOL  HW1   8554   3.884   2.665   2.040
 2139SOL  HW2   8555   3.759   2.613   1.972
 2139SOL  MW    8556   3.842   2.601   1.999
 2140SOL  OW    8557   3.822   2.646   2.323
 2140SOL  HW1   8558   3.757   2.715   2.333
 2140SOL  HW2   8559   3.773   2.571   2.290
 2140SOL  MW    8560   3.808   2.645   2.320
 2141SOL  OW    8561   3.833   2.618   2.629
 2141SOL  HW1   8562   3.874   2.573   2.703
 2141SOL  HW2   8563   3.776   2.683   2.669
 2141SOL  MW    8564   3.831   2.620   2.644
 2142SOL  OW    8565   3.869   2.582   2.885
 2142SOL  HW1   8566   3.865   2.554   2.793
 2142SOL  HW2   8567   3.962   2.600   2.901
 2142SOL  MW    8568   3.880   2.581   2.875
 2143SOL  OW    8569   3.815   2.607   3.228
 2143SOL  HW1   8570   3.818   2.683   3.286
 2143SOL  HW2   8571   3.849   2.639   3.144
 2143SOL  MW    8572   3.820   2.621   3.225
 2144SOL  OW    8573   3.817   2.608   3.534
 2144SOL  HW1   8574   3.738   2.605   3.480
 2144SOL  HW2   8575   3.823   2.522   3.574
 2144SOL  MW    8576   3.808   2.597   3.532
 2145SOL  OW    8577   3.815   2.649   3.854
 2145SOL  HW1   8578   3.907   2.647   3.827
 2145SOL  HW2   8579   3.770   2.595   3.789
 2145SOL  MW    8580   3.821   2.642   3.842
 2146SOL  OW    8581   3.837   2.924   0.139
 2146SOL  HW1   8582   3.882   2.968   0.211
 2146SOL  HW2   8583   3.879   2.958   0.060
 2146SOL  MW    8584   3.848   2.934   0.138
 2147SOL  OW    8585   3.875   2.929   0.461
 2147SOL  HW1   8586   3.957   2.933   0.413
 2147SOL  HW2   8587   3.807   2.936   0.394
 2147SOL  MW    8588   3.876   2.930   0.446
 2148SOL  OW    8589   3.879   2.950   0.794
 2148SOL  HW1   8590   3.962   2.972   0.752
 2148SOL  HW2   8591   3.849   2.871   0.749
 2148SOL  MW    8592   3.886   2.943   0.783
 2149SOL  OW    8593   3.824   2.895   1.092
 2149SOL  HW1   8594   3.772   2.972   1.116
 2149SOL  HW2   8595   3.821   2.839   1.169
 2149SOL  MW    8596   3.817   2.898   1.105
 2150SOL  OW    8597   3.844   2.938   1.405
 2150SOL  HW1   8598   3.918   2.961   1.460
 2150SOL  HW2   8599   3.782   2.895   1.465
 2150SOL  MW    8600   3.845   2.935   1.420
 2151SOL  OW    8601   3.830   2.906   1.692
 2151SOL  HW1   8602   3.839   2.882   1.599
 2151SOL  HW2   8603   3.835   3.001   1.692
 2151SOL  MW    8604   3.832   2.915   1.680
 2152SOL  OW    8605   3.828   2.936   2.020
 2152SOL  HW1   8606   3.757   2.873   2.008
 2152SOL  HW2   8607   3.876   2.905   2.097
 2152SOL  MW    8608   3.825   2.924   2.028
 2153SOL  OW    8609   3.844   2.941   2.309
 2153SOL  HW1   8610   3.801   2.886   2.374
 2153SOL  HW2   8611   3.864   3.022   2.355
 2153SOL  MW    8612   3.841   2.944   2.323
 2154SOL  OW    8613   3.863   2.901   2.634
 2154SOL  HW1   8614   3.894   2.936   2.718
 2154SOL  HW2   8615   3.903   2.814   2.628
 2154SOL  MW    8616   3.872   2.894   2.644
 2155SOL  OW    8617   3.863   2.904   2.928
 2155SOL  HW1   8618   3.918   2.970   2.970
 2155SOL  HW2   8619   3.879   2.917   2.834
 2155SOL  MW    8620   3.872   2.914   2.921
 2156SOL  OW    8621   3.875   2.903   3.250
 2156SOL  HW1   8622   3.822   2.842   3.301
 2156SOL  HW2   8623   3.946   2.850   3.214
 2156SOL  MW    8624   3.877   2.888   3.252
 2157SOL  OW    8625   3.882   2.952   3.531
 2157SOL  HW1   8626   3.802   2.971   3.483
 2157SOL  HW2   8627   3.929   3.036   3.533
 2157SOL  MW    8628   3.878   2.965   3.525
 2158SOL  OW    8629   3.855   2.962   3.852
 2158SOL  HW1   8630   3.910   2.958   3.929
 2158SOL  HW2   8631   3.774   3.005   3.882
 2158SOL  MW    8632   3.852   2.967   3.865
 2159SOL  OW    8633   3.815   3.194   0.177
 2159SOL  HW1   8634   3.852   3.109   0.155
 2159SOL  HW2   8635   3.780   3.183   0.265
 2159SOL  MW    8636   3.816   3.182   0.186
 2160SOL  OW    8637   3.840   3.211   0.449
 2160SOL  HW1   8638   3.829   3.128   0.402
 2160SOL  HW2   8639   3.892   3.187   0.526
 2160SOL  MW    8640   3.845   3.197   0.453
 2161SOL  OW    8641   3.867   3.228   0.799
 2161SOL  HW1   8642   3.909   3.200   0.880
 2161SOL  HW2   8643   3.917   3.185   0.730
 2161SOL  MW    8644   3.879   3.219   0.800
 2162SOL  OW    8645   3.865   3.269   1.108
 2162SOL  HW1   8646   3.794   3.224   1.154
 2162SOL  HW2   8647   3.945   3.234   1.148
 2162SOL  MW    8648   3.866   3.259   1.119
 2163SOL  OW    8649   3.827   3.243   1.346
 2163SOL  HW1   8650   3.789   3.159   1.370
 2163SOL  HW2   8651   3.761   3.308   1.375
 2163SOL  MW    8652   3.813   3.241   1.353
 2164SOL  OW    8653   3.885   3.212   1.705
 2164SOL  HW1   8654   3.925   3.270   1.770
 2164SOL  HW2   8655   3.890   3.261   1.624
 2164SOL  MW    8656   3.891   3.225   1.703
 2165SOL  OW    8657   3.874   3.204   2.028
 2165SOL  HW1   8658   3.841   3.251   1.951
 2165SOL  HW2   8659   3.824   3.239   2.101
 2165SOL  MW    8660   3.863   3.214   2.027
 2166SOL  OW    8661   3.807   3.226   2.305
 2166SOL  HW1   8662   3.774   3.263   2.223
 2166SOL  HW2   8663   3.902   3.238   2.301
 2166SOL  MW    8664   3.815   3.232   2.294
 2167SOL  OW    8665   3.836   3.238   2.649
 2167SOL  HW1   8666   3.792   3.246   2.564
 2167SOL  HW2   8667   3.781   3.177   2.698
 2167SOL  MW    8668   3.823   3.231   2.644
 2168SOL  OW    8669   3.832   3.237   2.953
 2168SOL  HW1   8670   3.892   3.259   3.025
 2168SOL  HW2   8671   3.778   3.315   2.943
 2168SOL  MW    8672   3.833   3.250   2.961
 2169SOL  OW    8673   3.868   3.194   3.266
 2169SOL  HW1   8674   3.815   3.271   3.246
 2169SOL  HW2   8675   3.909   3.170   3.183
 2169SOL  MW    8676   3.866   3.201   3.253
 2170SOL  OW    8677   3.810   3.238   3.544
 2170SOL  HW1   8678   3.765   3.153   3.547
 2170SOL  HW2   8679   3.743   3.300   3.515
 2170SOL  MW    8680   3.796   3.235   3.541
 2171SOL  OW    8681   3.869   3.203   3.821
 2171SOL  HW1   8682   3.900   3.167   3.737
 2171SOL  HW2   8683   3.938   3.181   3.883
 2171SOL  MW    8684   3.882   3.195   3.818
 2172SOL  OW    8685   3.866   3.510   0.151
 2172SOL  HW1   8686   3.896   3.599   0.129
 2172SOL  HW2   8687   3.914   3.489   0.231
 2172SOL  MW    8688   3.876   3.519   0.159
 2173SOL  OW    8689   3.865   3.551   0.438
 2173SOL  HW1   8690   3.848   3.603   0.517
 2173SOL  HW2   8691   3.960   3.549   0.430
 2173SOL  MW    8692   3.875   3.557   0.447
 2174SOL  OW    8693   3.830   3.576   0.765
 2174SOL  HW1   8694   3.796   3.659   0.733
 2174SOL  HW2   8695   3.900   3.553   0.703
 2174SOL  MW    8696   3.835   3.584   0.753
 2175SOL  OW    8697   3.810   3.516   1.064
 2175SOL  HW1   8698   3.839   3.546   0.978
 2175SOL  HW2   8699   3.808   3.421   1.058
 2175SOL  MW    8700   3.813   3.508   1.052
 2176SOL  OW    8701   3.886   3.523   1.347
 2176SOL  HW1   8702   3.945   3.583   1.391
 2176SOL  HW2   8703   3.813   3.513   1.407
 2176SOL  MW    8704   3.884   3.529   1.360
 2177SOL  OW    8705   3.847   3.505   1.674
 2177SOL  HW1   8706   3.874   3.581   1.622
 2177SOL  HW2   8707   3.755   3.492   1.652
 2177SOL  MW    8708   3.839   3.513   1.665
 2178SOL  OW    8709   3.886   3.555   1.964
 2178SOL  HW1   8710   3.870   3.643   1.999
 2178SOL  HW2   8711   3.940   3.512   2.030
 2178SOL  MW    8712   3.891   3.561   1.977
 2179SOL  OW    8713   3.842   3.512   2.278
 2179SOL  HW1   8714   3.894   3.443   2.236
 2179SOL  HW2   8715   3.898   3.545   2.348
 2179SOL  MW    8716   3.856   3.508   2.281
 2180SOL  OW    8717   3.853   3.539   2.635
 2180SOL  HW1   8718   3.896   3.548   2.550
 2180SOL  HW2   8719   3.781   3.601   2.632
 2180SOL  MW    8720   3.849   3.548   2.624
 2181SOL  OW    8721   3.878   3.518   2.957
 2181SOL  HW1   8722   3.804   3.574   2.932
 2181SOL  HW2   8723   3.845   3.429   2.945
 2181SOL  MW    8724   3.864   3.514   2.952
 2182SOL  OW    8725   3.848   3.519   3.258
 2182SOL  HW1   8726   3.883   3.567   3.333
 2182SOL  HW2   8727   3.852   3.427   3.284
 2182SOL  MW    8728   3.853   3.513   3.271
 2183SOL  OW    8729   3.809   3.543   3.556
 2183SOL  HW1   8730   3.844   3.570   3.471
 2183SOL  HW2   8731   3.878   3.489   3.594
 2183SOL  MW    8732   3.822   3.540   3.550
 2184SOL  OW    8733   3.829   3.568   3.825
 2184SOL  HW1   8734   3.745   3.562   3.779
 2184SOL  HW2   8735   3.894   3.579   3.756
 2184SOL  MW    8736   3.826   3.568   3.811
 2185SOL  OW    8737   3.873   3.812   0.127
 2185SOL  HW1   8738   3.814   3.738   0.128
 2185SOL  HW2   8739   3.818   3.887   0.103
 2185SOL  MW    8740   3.859   3.812   0.124
 2186SOL  OW    8741   3.837   3.874   0.433
 2186SOL  HW1   8742   3.754   3.854   0.389
 2186SOL  HW2   8743   3.900   3.813   0.396
 2186SOL  MW    8744   3.834   3.864   0.423
 2187SOL  OW    8745   3.876   3.825   0.765
 2187SOL  HW1   8746   3.963   3.836   0.728
 2187SOL  HW2   8747   3.892   3.812   0.859
 2187SOL  MW    8748   3.889   3.824   0.773
 2188SOL  OW    8749   3.834   3.816   1.112
 2188SOL  HW1   8750   3.825   3.909   1.092
 2188SOL  HW2   8751   3.911   3.811   1.170
 2188SOL  MW    8752   3.843   3.827   1.117
 2189SOL  OW    8753   3.841   3.861   1.391
 2189SOL  HW1   8754   3.756   3.902   1.407
 2189SOL  HW2   8755   3.820   3.775   1.354
 2189SOL  MW    8756   3.828   3.856   1.388
 2190SOL  OW    8757   3.846   3.855   1.724
 2190SOL  HW1   8758   3.883   3.783   1.674
 2190SOL  HW2   8759   3.782   3.896   1.666
 2190SOL  MW    8760   3.843   3.851   1.710
 2191SOL  OW    8761   3.862   3.849   2.012
 2191SOL  HW1   8762   3.877   3.889   2.097
 2191SOL  HW2   8763   3.932   3.784   2.003
 2191SOL  MW    8764   3.873   3.846   2.021
 2192SOL  OW    8765   3.855   3.841   2.318
 2192SOL  HW1   8766   3.886   3.879   2.400
 2192SOL  HW2   8767   3.934   3.828   2.266
 2192SOL  MW    8768   3.869   3.844   2.322
 2193SOL  OW    8769   3.842   3.867   2.653
 2193SOL  HW1   8770   3.898   3.897   2.724
 2193SOL  HW2   8771   3.896   3.874   2.574
 2193SOL  MW    8772   3.856   3.872   2.652
 2194SOL  OW    8773   3.883   3.872   2.931
 2194SOL  HW1   8774   3.927   3.868   2.846
 2194SOL  HW2   8775   3.834   3.789   2.937
 2194SOL  MW    8776   3.882   3.861   2.921
 2195SOL  OW    8777   3.866   3.820   3.229
 2195SOL  HW1   8778   3.826   3.907   3.220
 2195SOL  HW2   8779   3.921   3.811   3.151
 2195SOL  MW    8780   3.868   3.830   3.218
 2196SOL  OW    8781   3.827   3.806   3.576
 2196SOL  HW1   8782   3.819   3.885   3.631
 2196SOL  HW2   8783   3.834   3.840   3.487
 2196SOL  MW    8784   3.827   3.821   3.571
 2197SOL  OW    8785   3.875   3.847   3.826
 2197SOL  HW1   8786   3.927   3.776   3.790
 2197SOL  HW2   8787   3.794   3.806   3.855
 2197SOL  MW    8788   3.871   3.833   3.825
   4.00000   4.00000   4.00000
