; Exact Amber Lipid21 v1.0 topology converted by ParmEd
; Explicit [pairs] preserve Lipid21-specific 1-4 scaling.
; Conversion contract: amber-explicit-pairs-v2 (independent of parent defaults).

[ moleculetype ]
; Name nrexcl
CHOL 3

[ atoms ]
; nr type resnr residue atom cgnr charge mass
1 L21_cA 1 CHOL C1 1 -0.24773600 12.010000
2 L21_hA 1 CHOL H11 2 0.04877200 1.008000
3 L21_hA 1 CHOL H12 3 0.04877200 1.008000
4 L21_cA 1 CHOL C2 4 -0.06149800 12.010000
5 L21_hA 1 CHOL H21 5 0.04812800 1.008000
6 L21_hA 1 CHOL H22 6 0.04812800 1.008000
7 L21_cA 1 CHOL C3 7 0.40036200 12.010000
8 L21_hE 1 CHOL H31 8 -0.00851000 1.008000
9 L21_cA 1 CHOL C4 9 -0.23713400 12.010000
10 L21_hA 1 CHOL H41 10 0.10061900 1.008000
11 L21_hA 1 CHOL H42 11 0.10061900 1.008000
12 L21_cB 1 CHOL C5 12 -0.25751500 12.010000
13 L21_cB 1 CHOL C6 13 -0.24373000 12.010000
14 L21_hB 1 CHOL H61 14 0.14860700 1.008000
15 L21_cA 1 CHOL C7 15 -0.07545300 12.010000
16 L21_hA 1 CHOL H71 16 0.05129700 1.008000
17 L21_hA 1 CHOL H72 17 0.05129700 1.008000
18 L21_cA 1 CHOL C8 18 0.01783500 12.010000
19 L21_hA 1 CHOL H81 19 0.02812000 1.008000
20 L21_cA 1 CHOL C9 20 -0.02983900 12.010000
21 L21_hA 1 CHOL H91 21 -0.00336100 1.008000
22 L21_cA 1 CHOL C10 22 0.54647000 12.010000
23 L21_cA 1 CHOL C11 23 -0.12771500 12.010000
24 L21_hA 1 CHOL H111 24 0.04025700 1.008000
25 L21_hA 1 CHOL H112 25 0.04025700 1.008000
26 L21_cA 1 CHOL C12 26 -0.15805400 12.010000
27 L21_hA 1 CHOL H121 27 0.00768700 1.008000
28 L21_hA 1 CHOL H122 28 0.00768700 1.008000
29 L21_cA 1 CHOL C13 29 0.58369200 12.010000
30 L21_cA 1 CHOL C14 30 0.01375300 12.010000
31 L21_hA 1 CHOL H141 31 0.00446900 1.008000
32 L21_cA 1 CHOL C15 32 -0.18504700 12.010000
33 L21_hA 1 CHOL H151 33 0.04122800 1.008000
34 L21_hA 1 CHOL H152 34 0.04122800 1.008000
35 L21_cA 1 CHOL C16 35 -0.08291900 12.010000
36 L21_hA 1 CHOL H161 36 0.02763900 1.008000
37 L21_hA 1 CHOL H162 37 0.02763900 1.008000
38 L21_cA 1 CHOL C17 38 -0.05176700 12.010000
39 L21_hA 1 CHOL H171 39 -0.03043600 1.008000
40 L21_cA 1 CHOL C18 40 -0.53600400 12.010000
41 L21_hA 1 CHOL H181 41 0.10362300 1.008000
42 L21_hA 1 CHOL H182 42 0.10362300 1.008000
43 L21_hA 1 CHOL H183 43 0.10362300 1.008000
44 L21_cA 1 CHOL C19 44 -0.35221800 12.010000
45 L21_hA 1 CHOL H191 45 0.07246900 1.008000
46 L21_hA 1 CHOL H192 46 0.07246900 1.008000
47 L21_hA 1 CHOL H193 47 0.07246900 1.008000
48 L21_cD 1 CHOL C20 48 0.17875200 12.010000
49 L21_hL 1 CHOL H201 49 -0.01601500 1.008000
50 L21_cD 1 CHOL C21 50 -0.42796800 12.010000
51 L21_hL 1 CHOL H211 51 0.09921900 1.008000
52 L21_hL 1 CHOL H212 52 0.09921900 1.008000
53 L21_hL 1 CHOL H213 53 0.09921900 1.008000
54 L21_cD 1 CHOL C22 54 -0.05025600 12.010000
55 L21_hL 1 CHOL H221 55 0.00944500 1.008000
56 L21_hL 1 CHOL H222 56 0.00944500 1.008000
57 L21_cD 1 CHOL C23 57 0.07866500 12.010000
58 L21_hL 1 CHOL H231 58 -0.00795700 1.008000
59 L21_hL 1 CHOL H232 59 -0.00795700 1.008000
60 L21_cD 1 CHOL C24 60 -0.28213300 12.010000
61 L21_hL 1 CHOL H241 61 0.06297200 1.008000
62 L21_hL 1 CHOL H242 62 0.06297200 1.008000
63 L21_cD 1 CHOL C25 63 0.45060100 12.010000
64 L21_hL 1 CHOL H251 64 -0.04912800 1.008000
65 L21_cD 1 CHOL C26 65 -0.44930000 12.010000
66 L21_hL 1 CHOL H261 66 0.09986900 1.008000
67 L21_hL 1 CHOL H262 67 0.09986900 1.008000
68 L21_hL 1 CHOL H263 68 0.09986900 1.008000
69 L21_cD 1 CHOL C27 69 -0.44930000 12.010000
70 L21_hL 1 CHOL H271 70 0.09986900 1.008000
71 L21_hL 1 CHOL H272 71 0.09986900 1.008000
72 L21_hL 1 CHOL H273 72 0.09986900 1.008000
73 L21_oH 1 CHOL O1 73 -0.76658100 16.000000
74 L21_hO 1 CHOL HO1 74 0.44297000 1.008000

[ bonds ]
;    ai     aj funct         c0         c1         c2         c3
     63     65     1   0.15350 253634.080000
     63     69     1   0.15350 253634.080000
     60     63     1   0.15350 253634.080000
     57     60     1   0.15350 253634.080000
     54     57     1   0.15350 253634.080000
     48     50     1   0.15350 253634.080000
     48     54     1   0.15350 253634.080000
     38     48     1   0.15350 253634.080000
     35     38     1   0.15350 253634.080000
     32     35     1   0.15350 253634.080000
     30     32     1   0.15350 253634.080000
     29     30     1   0.15350 253634.080000
     29     38     1   0.15350 253634.080000
     29     40     1   0.15350 253634.080000
     26     29     1   0.15350 253634.080000
     23     26     1   0.15350 253634.080000
     22     44     1   0.15350 253634.080000
     20     22     1   0.15350 253634.080000
     20     23     1   0.15350 253634.080000
     18     20     1   0.15350 253634.080000
     18     30     1   0.15350 253634.080000
     15     18     1   0.15350 253634.080000
     13     15     1   0.15080 274721.440000
     12     13     1   0.13240 493460.960000
     12     22     1   0.15080 274721.440000
      9     12     1   0.15080 274721.440000
      7      9     1   0.15350 253634.080000
      7     73     1   0.14260 262838.880000
      4      7     1   0.15350 253634.080000
      1      4     1   0.15350 253634.080000
      1     22     1   0.15350 253634.080000
     73     74     1   0.09740 309281.280000
     69     70     1   0.10920 282252.640000
     69     71     1   0.10920 282252.640000
     69     72     1   0.10920 282252.640000
     65     66     1   0.10920 282252.640000
     65     67     1   0.10920 282252.640000
     65     68     1   0.10920 282252.640000
     63     64     1   0.10920 282252.640000
     60     61     1   0.10920 282252.640000
     60     62     1   0.10920 282252.640000
     57     58     1   0.10920 282252.640000
     57     59     1   0.10920 282252.640000
     54     55     1   0.10920 282252.640000
     54     56     1   0.10920 282252.640000
     50     51     1   0.10920 282252.640000
     50     52     1   0.10920 282252.640000
     50     53     1   0.10920 282252.640000
     48     49     1   0.10920 282252.640000
     44     45     1   0.10920 282252.640000
     44     46     1   0.10920 282252.640000
     44     47     1   0.10920 282252.640000
     40     41     1   0.10920 282252.640000
     40     42     1   0.10920 282252.640000
     40     43     1   0.10920 282252.640000
     38     39     1   0.10920 282252.640000
     35     36     1   0.10920 282252.640000
     35     37     1   0.10920 282252.640000
     32     33     1   0.10920 282252.640000
     32     34     1   0.10920 282252.640000
     30     31     1   0.10920 282252.640000
     26     27     1   0.10920 282252.640000
     26     28     1   0.10920 282252.640000
     23     24     1   0.10920 282252.640000
     23     25     1   0.10920 282252.640000
     20     21     1   0.10920 282252.640000
     18     19     1   0.10920 282252.640000
     15     16     1   0.10920 282252.640000
     15     17     1   0.10920 282252.640000
     13     14     1   0.10870 288110.240000
      9     10     1   0.10920 282252.640000
      9     11     1   0.10920 282252.640000
      7      8     1   0.10930 281081.120000
      4      5     1   0.10920 282252.640000
      4      6     1   0.10920 282252.640000
      1      2     1   0.10920 282252.640000
      1      3     1   0.10920 282252.640000


[ pairs ]
; ai aj funct fudgeQQ qi qj sigma epsilon; source-specific LJ and charge scaling
1 8 2 0.83333333333333 -0.24773599984634 -0.00851 0.29355112776543 0.086700213146672
1 9 2 0.83333333333333 -0.24773599984634 -0.23713400009878 0.33996695084507 0.2288647998237
1 13 2 0.83333333333333 -0.24773599984634 -0.24373000005488 0.33996695087407 0.20291752963184
1 18 2 0.83333333333333 -0.24773599984634 0.017835000027439 0.33996695084507 0.2288647998237
1 21 2 0.83333333333333 -0.24773599984634 -0.003361 0.30246011476506 0.08670021373307
1 23 2 0.83333333333333 -0.24773599984634 -0.12771499975305 0.33996695084507 0.2288647998237
1 45 2 0.83333333333333 -0.24773599984634 0.072469000071341 0.30246011476506 0.08670021373307
1 46 2 0.83333333333333 -0.24773599984634 0.072469000071341 0.30246011476506 0.08670021373307
1 47 2 0.83333333333333 -0.24773599984634 0.072469000071341 0.30246011476506 0.08670021373307
1 73 2 0.83333333333333 -0.24773599984634 -0.76658100239816 0.32330714485393 0.31738997747947
2 5 2 0.83333333333333 0.048772000021951 0.048127999978049 0.26495327872602 0.032844400054886
2 6 2 0.83333333333333 0.048772000021951 0.048127999978049 0.26495327872602 0.032844400054886
2 7 2 0.83333333333333 0.048772000021951 0.40036199985732 0.30246011476506 0.08670021373307
2 12 2 0.83333333333333 0.048772000021951 -0.25751499975305 0.30246011462145 0.076870682167679
2 20 2 0.83333333333333 0.048772000021951 -0.029839000016463 0.30246011476506 0.08670021373307
2 44 2 0.83333333333333 0.048772000021951 -0.35221799992317 0.30246011476506 0.08670021373307
3 5 2 0.83333333333333 0.048772000021951 0.048127999978049 0.26495327872602 0.032844400054886
3 6 2 0.83333333333333 0.048772000021951 0.048127999978049 0.26495327872602 0.032844400054886
3 7 2 0.83333333333333 0.048772000021951 0.40036199985732 0.30246011476506 0.08670021373307
3 12 2 0.83333333333333 0.048772000021951 -0.25751499975305 0.30246011462145 0.076870682167679
3 20 2 0.83333333333333 0.048772000021951 -0.029839000016463 0.30246011476506 0.08670021373307
3 44 2 0.83333333333333 0.048772000021951 -0.35221799992317 0.30246011476506 0.08670021373307
4 10 2 0.83333333333333 -0.061498000252438 0.10061899979695 0.30246011476506 0.08670021373307
4 11 2 0.83333333333333 -0.061498000252438 0.10061899979695 0.30246011476506 0.08670021373307
4 12 2 0.83333333333333 -0.061498000252438 -0.25751499975305 0.33996695087407 0.20291752963184
4 20 2 0.83333333333333 -0.061498000252438 -0.029839000016463 0.33996695084507 0.2288647998237
4 44 2 0.83333333333333 -0.061498000252438 -0.35221799992317 0.33996695084507 0.2288647998237
4 74 2 0.83333333333333 -0.061498000252438 0.44296999994512 0.22343739849812 0.086700213704004
5 8 2 0.83333333333333 0.048127999978049 -0.00851 0.2560442916332 0.032844399959425
5 9 2 0.83333333333333 0.048127999978049 -0.23713400009878 0.30246011476506 0.08670021373307
5 22 2 0.83333333333333 0.048127999978049 0.54646999994512 0.30246011476506 0.08670021373307
5 73 2 0.83333333333333 0.048127999978049 -0.76658100239816 0.28580030892561 0.1202359588731
6 8 2 0.83333333333333 0.048127999978049 -0.00851 0.2560442916332 0.032844399959425
6 9 2 0.83333333333333 0.048127999978049 -0.23713400009878 0.30246011476506 0.08670021373307
6 22 2 0.83333333333333 0.048127999978049 0.54646999994512 0.30246011476506 0.08670021373307
6 73 2 0.83333333333333 0.048127999978049 -0.76658100239816 0.28580030892561 0.1202359588731
7 13 2 0.83333333333333 0.40036199985732 -0.24373000005488 0.33996695087407 0.20291752963184
7 22 2 0.83333333333333 0.40036199985732 0.54646999994512 0.33996695084507 0.2288647998237
8 10 2 0.83333333333333 -0.00851 0.10061899979695 0.2560442916332 0.032844399959425
8 11 2 0.83333333333333 -0.00851 0.10061899979695 0.2560442916332 0.032844399959425
8 12 2 0.83333333333333 -0.00851 -0.25751499975305 0.29355112761526 0.076870681673027
8 74 2 0.83333333333333 -0.00851 0.44296999994512 0.17702157530218 0.03284439999243
9 14 2 0.83333333333333 -0.23713400009878 0.14860700021402 0.28134581515096 0.057892107742859
9 15 2 0.83333333333333 -0.23713400009878 -0.075452999895732 0.33996695084507 0.2288647998237
9 20 2 0.83333333333333 -0.23713400009878 -0.029839000016463 0.33996695084507 0.2288647998237
9 44 2 0.83333333333333 -0.23713400009878 -0.35221799992317 0.33996695084507 0.2288647998237
9 74 2 0.83333333333333 -0.23713400009878 0.44296999994512 0.22343739849812 0.086700213704004
10 13 2 0.83333333333333 0.10061899979695 -0.24373000005488 0.30246011462145 0.076870682167679
10 22 2 0.83333333333333 0.10061899979695 0.54646999994512 0.30246011476506 0.08670021373307
10 73 2 0.83333333333333 0.10061899979695 -0.76658100239816 0.28580030892561 0.1202359588731
11 13 2 0.83333333333333 0.10061899979695 -0.24373000005488 0.30246011462145 0.076870682167679
11 22 2 0.83333333333333 0.10061899979695 0.54646999994512 0.30246011476506 0.08670021373307
11 73 2 0.83333333333333 0.10061899979695 -0.76658100239816 0.28580030892561 0.1202359588731
12 16 2 0.83333333333333 -0.25751499975305 0.051296999994512 0.30246011462145 0.076870682167679
12 17 2 0.83333333333333 -0.25751499975305 0.051296999994512 0.30246011462145 0.076870682167679
12 18 2 0.83333333333333 -0.25751499975305 0.017835000027439 0.33996695087407 0.20291752963184
12 21 2 0.83333333333333 -0.25751499975305 -0.003361 0.30246011462145 0.076870682167679
12 23 2 0.83333333333333 -0.25751499975305 -0.12771499975305 0.33996695087407 0.20291752963184
12 45 2 0.83333333333333 -0.25751499975305 0.072469000071341 0.30246011462145 0.076870682167679
12 46 2 0.83333333333333 -0.25751499975305 0.072469000071341 0.30246011462145 0.076870682167679
12 47 2 0.83333333333333 -0.25751499975305 0.072469000071341 0.30246011462145 0.076870682167679
12 73 2 0.83333333333333 -0.25751499975305 -0.76658100239816 0.32330714484621 0.28140627211592
13 19 2 0.83333333333333 -0.24373000005488 0.02812 0.30246011462145 0.076870682167679
13 20 2 0.83333333333333 -0.24373000005488 -0.029839000016463 0.33996695087407 0.20291752963184
13 30 2 0.83333333333333 -0.24373000005488 0.013753000005488 0.33996695087407 0.20291752963184
13 44 2 0.83333333333333 -0.24373000005488 -0.35221799992317 0.33996695087407 0.20291752963184
14 16 2 0.83333333333333 0.14860700021402 0.051296999994512 0.24383897908345 0.021931105643986
14 17 2 0.83333333333333 0.14860700021402 0.051296999994512 0.24383897908345 0.021931105643986
14 18 2 0.83333333333333 0.14860700021402 0.017835000027439 0.28134581515096 0.057892107742859
14 22 2 0.83333333333333 0.14860700021402 0.54646999994512 0.28134581515096 0.057892107742859
15 21 2 0.83333333333333 -0.075452999895732 -0.003361 0.30246011476506 0.08670021373307
15 22 2 0.83333333333333 -0.075452999895732 0.54646999994512 0.33996695084507 0.2288647998237
15 23 2 0.83333333333333 -0.075452999895732 -0.12771499975305 0.33996695084507 0.2288647998237
15 29 2 0.83333333333333 -0.075452999895732 0.58369199826586 0.33996695084507 0.2288647998237
15 31 2 0.83333333333333 -0.075452999895732 0.004469 0.30246011476506 0.08670021373307
15 32 2 0.83333333333333 -0.075452999895732 -0.18504700010427 0.33996695084507 0.2288647998237
16 19 2 0.83333333333333 0.051296999994512 0.02812 0.26495327872602 0.032844400054886
16 20 2 0.83333333333333 0.051296999994512 -0.029839000016463 0.30246011476506 0.08670021373307
16 30 2 0.83333333333333 0.051296999994512 0.013753000005488 0.30246011476506 0.08670021373307
17 19 2 0.83333333333333 0.051296999994512 0.02812 0.26495327872602 0.032844400054886
17 20 2 0.83333333333333 0.051296999994512 -0.029839000016463 0.30246011476506 0.08670021373307
17 30 2 0.83333333333333 0.051296999994512 0.013753000005488 0.30246011476506 0.08670021373307
18 24 2 0.83333333333333 0.017835000027439 0.040256999994512 0.30246011476506 0.08670021373307
18 25 2 0.83333333333333 0.017835000027439 0.040256999994512 0.30246011476506 0.08670021373307
18 26 2 0.83333333333333 0.017835000027439 -0.15805399976951 0.33996695084507 0.2288647998237
18 33 2 0.83333333333333 0.017835000027439 0.041227999978049 0.30246011476506 0.08670021373307
18 34 2 0.83333333333333 0.017835000027439 0.041227999978049 0.30246011476506 0.08670021373307
18 35 2 0.83333333333333 0.017835000027439 -0.082918999796952 0.33996695084507 0.2288647998237
18 38 2 0.83333333333333 0.017835000027439 -0.051766999994512 0.33996695084507 0.2288647998237
18 40 2 0.83333333333333 0.017835000027439 -0.5360040000439 0.33996695084507 0.2288647998237
18 44 2 0.83333333333333 0.017835000027439 -0.35221799992317 0.33996695084507 0.2288647998237
19 21 2 0.83333333333333 0.02812 -0.003361 0.26495327872602 0.032844400054886
19 22 2 0.83333333333333 0.02812 0.54646999994512 0.30246011476506 0.08670021373307
19 23 2 0.83333333333333 0.02812 -0.12771499975305 0.30246011476506 0.08670021373307
19 29 2 0.83333333333333 0.02812 0.58369199826586 0.30246011476506 0.08670021373307
19 31 2 0.83333333333333 0.02812 0.004469 0.26495327872602 0.032844400054886
19 32 2 0.83333333333333 0.02812 -0.18504700010427 0.30246011476506 0.08670021373307
20 27 2 0.83333333333333 -0.029839000016463 0.0076869999945122 0.30246011476506 0.08670021373307
20 28 2 0.83333333333333 -0.029839000016463 0.0076869999945122 0.30246011476506 0.08670021373307
20 29 2 0.83333333333333 -0.029839000016463 0.58369199826586 0.33996695084507 0.2288647998237
20 31 2 0.83333333333333 -0.029839000016463 0.004469 0.30246011476506 0.08670021373307
20 32 2 0.83333333333333 -0.029839000016463 -0.18504700010427 0.33996695084507 0.2288647998237
20 45 2 0.83333333333333 -0.029839000016463 0.072469000071341 0.30246011476506 0.08670021373307
20 46 2 0.83333333333333 -0.029839000016463 0.072469000071341 0.30246011476506 0.08670021373307
20 47 2 0.83333333333333 -0.029839000016463 0.072469000071341 0.30246011476506 0.08670021373307
21 24 2 0.83333333333333 -0.003361 0.040256999994512 0.26495327872602 0.032844400054886
21 25 2 0.83333333333333 -0.003361 0.040256999994512 0.26495327872602 0.032844400054886
21 26 2 0.83333333333333 -0.003361 -0.15805399976951 0.30246011476506 0.08670021373307
21 30 2 0.83333333333333 -0.003361 0.013753000005488 0.30246011476506 0.08670021373307
21 44 2 0.83333333333333 -0.003361 -0.35221799992317 0.30246011476506 0.08670021373307
22 24 2 0.83333333333333 0.54646999994512 0.040256999994512 0.30246011476506 0.08670021373307
22 25 2 0.83333333333333 0.54646999994512 0.040256999994512 0.30246011476506 0.08670021373307
22 26 2 0.83333333333333 0.54646999994512 -0.15805399976951 0.33996695084507 0.2288647998237
22 30 2 0.83333333333333 0.54646999994512 0.013753000005488 0.33996695084507 0.2288647998237
23 30 2 0.83333333333333 -0.12771499975305 0.013753000005488 0.33996695084507 0.2288647998237
23 38 2 0.83333333333333 -0.12771499975305 -0.051766999994512 0.33996695084507 0.2288647998237
23 40 2 0.83333333333333 -0.12771499975305 -0.5360040000439 0.33996695084507 0.2288647998237
23 44 2 0.83333333333333 -0.12771499975305 -0.35221799992317 0.33996695084507 0.2288647998237
24 27 2 0.83333333333333 0.040256999994512 0.0076869999945122 0.26495327872602 0.032844400054886
24 28 2 0.83333333333333 0.040256999994512 0.0076869999945122 0.26495327872602 0.032844400054886
24 29 2 0.83333333333333 0.040256999994512 0.58369199826586 0.30246011476506 0.08670021373307
25 27 2 0.83333333333333 0.040256999994512 0.0076869999945122 0.26495327872602 0.032844400054886
25 28 2 0.83333333333333 0.040256999994512 0.0076869999945122 0.26495327872602 0.032844400054886
25 29 2 0.83333333333333 0.040256999994512 0.58369199826586 0.30246011476506 0.08670021373307
26 31 2 0.83333333333333 -0.15805399976951 0.004469 0.30246011476506 0.08670021373307
26 32 2 0.83333333333333 -0.15805399976951 -0.18504700010427 0.33996695084507 0.2288647998237
26 35 2 0.83333333333333 -0.15805399976951 -0.082918999796952 0.33996695084507 0.2288647998237
26 39 2 0.83333333333333 -0.15805399976951 -0.030436000010976 0.30246011476506 0.08670021373307
26 41 2 0.83333333333333 -0.15805399976951 0.10362299984085 0.30246011476506 0.08670021373307
26 42 2 0.83333333333333 -0.15805399976951 0.10362299984085 0.30246011476506 0.08670021373307
26 43 2 0.83333333333333 -0.15805399976951 0.10362299984085 0.30246011476506 0.08670021373307
26 48 2 0.83333333333333 -0.15805399976951 0.17875200002195 0.33996695084507 0.2288647998237
27 30 2 0.83333333333333 0.0076869999945122 0.013753000005488 0.30246011476506 0.08670021373307
27 38 2 0.83333333333333 0.0076869999945122 -0.051766999994512 0.30246011476506 0.08670021373307
27 40 2 0.83333333333333 0.0076869999945122 -0.5360040000439 0.30246011476506 0.08670021373307
28 30 2 0.83333333333333 0.0076869999945122 0.013753000005488 0.30246011476506 0.08670021373307
28 38 2 0.83333333333333 0.0076869999945122 -0.051766999994512 0.30246011476506 0.08670021373307
28 40 2 0.83333333333333 0.0076869999945122 -0.5360040000439 0.30246011476506 0.08670021373307
29 33 2 0.83333333333333 0.58369199826586 0.041227999978049 0.30246011476506 0.08670021373307
29 34 2 0.83333333333333 0.58369199826586 0.041227999978049 0.30246011476506 0.08670021373307
29 36 2 0.83333333333333 0.58369199826586 0.027639000016463 0.30246011476506 0.08670021373307
29 37 2 0.83333333333333 0.58369199826586 0.027639000016463 0.30246011476506 0.08670021373307
29 49 2 0.83333333333333 0.58369199826586 -0.016015000027439 0.30005468824211 0.069194303392389
29 50 2 0.83333333333333 0.58369199826586 -0.42796800019756 0.33996695084507 0.2288647998237
29 54 2 0.83333333333333 0.58369199826586 -0.050256000010976 0.33996695084507 0.2288647998237
30 36 2 0.83333333333333 0.013753000005488 0.027639000016463 0.30246011476506 0.08670021373307
30 37 2 0.83333333333333 0.013753000005488 0.027639000016463 0.30246011476506 0.08670021373307
30 39 2 0.83333333333333 0.013753000005488 -0.030436000010976 0.30246011476506 0.08670021373307
30 41 2 0.83333333333333 0.013753000005488 0.10362299984085 0.30246011476506 0.08670021373307
30 42 2 0.83333333333333 0.013753000005488 0.10362299984085 0.30246011476506 0.08670021373307
30 43 2 0.83333333333333 0.013753000005488 0.10362299984085 0.30246011476506 0.08670021373307
30 48 2 0.83333333333333 0.013753000005488 0.17875200002195 0.33996695084507 0.2288647998237
31 33 2 0.83333333333333 0.004469 0.041227999978049 0.26495327872602 0.032844400054886
31 34 2 0.83333333333333 0.004469 0.041227999978049 0.26495327872602 0.032844400054886
31 35 2 0.83333333333333 0.004469 -0.082918999796952 0.30246011476506 0.08670021373307
31 38 2 0.83333333333333 0.004469 -0.051766999994512 0.30246011476506 0.08670021373307
31 40 2 0.83333333333333 0.004469 -0.5360040000439 0.30246011476506 0.08670021373307
32 39 2 0.83333333333333 -0.18504700010427 -0.030436000010976 0.30246011476506 0.08670021373307
32 40 2 0.83333333333333 -0.18504700010427 -0.5360040000439 0.33996695084507 0.2288647998237
32 48 2 0.83333333333333 -0.18504700010427 0.17875200002195 0.33996695084507 0.2288647998237
33 36 2 0.83333333333333 0.041227999978049 0.027639000016463 0.26495327872602 0.032844400054886
33 37 2 0.83333333333333 0.041227999978049 0.027639000016463 0.26495327872602 0.032844400054886
33 38 2 0.83333333333333 0.041227999978049 -0.051766999994512 0.30246011476506 0.08670021373307
34 36 2 0.83333333333333 0.041227999978049 0.027639000016463 0.26495327872602 0.032844400054886
34 37 2 0.83333333333333 0.041227999978049 0.027639000016463 0.26495327872602 0.032844400054886
34 38 2 0.83333333333333 0.041227999978049 -0.051766999994512 0.30246011476506 0.08670021373307
35 40 2 0.83333333333333 -0.082918999796952 -0.5360040000439 0.33996695084507 0.2288647998237
35 49 2 0.83333333333333 -0.082918999796952 -0.016015000027439 0.30005468824211 0.069194303392389
35 50 2 0.83333333333333 -0.082918999796952 -0.42796800019756 0.33996695084507 0.2288647998237
35 54 2 0.83333333333333 -0.082918999796952 -0.050256000010976 0.33996695084507 0.2288647998237
36 39 2 0.83333333333333 0.027639000016463 -0.030436000010976 0.26495327872602 0.032844400054886
36 48 2 0.83333333333333 0.027639000016463 0.17875200002195 0.30246011476506 0.08670021373307
37 39 2 0.83333333333333 0.027639000016463 -0.030436000010976 0.26495327872602 0.032844400054886
37 48 2 0.83333333333333 0.027639000016463 0.17875200002195 0.30246011476506 0.08670021373307
38 41 2 0.83333333333333 -0.051766999994512 0.10362299984085 0.30246011476506 0.08670021373307
38 42 2 0.83333333333333 -0.051766999994512 0.10362299984085 0.30246011476506 0.08670021373307
38 43 2 0.83333333333333 -0.051766999994512 0.10362299984085 0.30246011476506 0.08670021373307
38 51 2 0.83333333333333 -0.051766999994512 0.099218999796952 0.30005468824211 0.069194303392389
38 52 2 0.83333333333333 -0.051766999994512 0.099218999796952 0.30005468824211 0.069194303392389
38 53 2 0.83333333333333 -0.051766999994512 0.099218999796952 0.30005468824211 0.069194303392389
38 55 2 0.83333333333333 -0.051766999994512 0.0094450000274389 0.30005468824211 0.069194303392389
38 56 2 0.83333333333333 -0.051766999994512 0.0094450000274389 0.30005468824211 0.069194303392389
38 57 2 0.83333333333333 -0.051766999994512 0.078665000027439 0.33996695084507 0.2288647998237
39 40 2 0.83333333333333 -0.030436000010976 -0.5360040000439 0.30246011476506 0.08670021373307
39 49 2 0.83333333333333 -0.030436000010976 -0.016015000027439 0.26254785222903 0.026212684867965
39 50 2 0.83333333333333 -0.030436000010976 -0.42796800019756 0.30246011476506 0.08670021373307
39 54 2 0.83333333333333 -0.030436000010976 -0.050256000010976 0.30246011476506 0.08670021373307
40 48 2 0.83333333333333 -0.5360040000439 0.17875200002195 0.33996695084507 0.2288647998237
48 58 2 0.83333333333333 0.17875200002195 -0.0079569999945122 0.30005468824211 0.069194303392389
48 59 2 0.83333333333333 0.17875200002195 -0.0079569999945122 0.30005468824211 0.069194303392389
48 60 2 0.83333333333333 0.17875200002195 -0.282133000225 0.33996695084507 0.076288266607901
49 51 2 0.83333333333333 -0.016015000027439 0.099218999796952 0.26014242576773 0.020919999936173
49 52 2 0.83333333333333 -0.016015000027439 0.099218999796952 0.26014242576773 0.020919999936173
49 53 2 0.83333333333333 -0.016015000027439 0.099218999796952 0.26014242576773 0.020919999936173
49 55 2 0.83333333333333 -0.016015000027439 0.0094450000274389 0.26014242576773 0.020919999936173
49 56 2 0.83333333333333 -0.016015000027439 0.0094450000274389 0.26014242576773 0.020919999936173
49 57 2 0.83333333333333 -0.016015000027439 0.078665000027439 0.30005468824211 0.069194303392389
50 55 2 0.83333333333333 -0.42796800019756 0.0094450000274389 0.30005468824211 0.069194303392389
50 56 2 0.83333333333333 -0.42796800019756 0.0094450000274389 0.30005468824211 0.069194303392389
50 57 2 0.83333333333333 -0.42796800019756 0.078665000027439 0.33996695084507 0.076288266607901
51 54 2 0.83333333333333 0.099218999796952 -0.050256000010976 0.30005468824211 0.069194303392389
52 54 2 0.83333333333333 0.099218999796952 -0.050256000010976 0.30005468824211 0.069194303392389
53 54 2 0.83333333333333 0.099218999796952 -0.050256000010976 0.30005468824211 0.069194303392389
54 61 2 0.83333333333333 -0.050256000010976 0.062972000241462 0.30005468824211 0.069194303392389
54 62 2 0.83333333333333 -0.050256000010976 0.062972000241462 0.30005468824211 0.069194303392389
54 63 2 0.83333333333333 -0.050256000010976 0.45060099987378 0.33996695084507 0.076288266607901
55 58 2 0.83333333333333 0.0094450000274389 -0.0079569999945122 0.26014242576773 0.020919999936173
55 59 2 0.83333333333333 0.0094450000274389 -0.0079569999945122 0.26014242576773 0.020919999936173
55 60 2 0.83333333333333 0.0094450000274389 -0.282133000225 0.30005468824211 0.069194303392389
56 58 2 0.83333333333333 0.0094450000274389 -0.0079569999945122 0.26014242576773 0.020919999936173
56 59 2 0.83333333333333 0.0094450000274389 -0.0079569999945122 0.26014242576773 0.020919999936173
56 60 2 0.83333333333333 0.0094450000274389 -0.282133000225 0.30005468824211 0.069194303392389
57 64 2 0.83333333333333 0.078665000027439 -0.049127999978049 0.30005468824211 0.069194303392389
57 65 2 0.83333333333333 0.078665000027439 -0.4493 0.33996695084507 0.076288266607901
57 69 2 0.83333333333333 0.078665000027439 -0.4493 0.33996695084507 0.076288266607901
58 61 2 0.83333333333333 -0.0079569999945122 0.062972000241462 0.26014242576773 0.020919999936173
58 62 2 0.83333333333333 -0.0079569999945122 0.062972000241462 0.26014242576773 0.020919999936173
58 63 2 0.83333333333333 -0.0079569999945122 0.45060099987378 0.30005468824211 0.069194303392389
59 61 2 0.83333333333333 -0.0079569999945122 0.062972000241462 0.26014242576773 0.020919999936173
59 62 2 0.83333333333333 -0.0079569999945122 0.062972000241462 0.26014242576773 0.020919999936173
59 63 2 0.83333333333333 -0.0079569999945122 0.45060099987378 0.30005468824211 0.069194303392389
60 66 2 0.83333333333333 -0.282133000225 0.099869000071341 0.30005468824211 0.069194303392389
60 67 2 0.83333333333333 -0.282133000225 0.099869000071341 0.30005468824211 0.069194303392389
60 68 2 0.83333333333333 -0.282133000225 0.099869000071341 0.30005468824211 0.069194303392389
60 70 2 0.83333333333333 -0.282133000225 0.099869000071341 0.30005468824211 0.069194303392389
60 71 2 0.83333333333333 -0.282133000225 0.099869000071341 0.30005468824211 0.069194303392389
60 72 2 0.83333333333333 -0.282133000225 0.099869000071341 0.30005468824211 0.069194303392389
61 64 2 0.83333333333333 0.062972000241462 -0.049127999978049 0.26014242576773 0.020919999936173
61 65 2 0.83333333333333 0.062972000241462 -0.4493 0.30005468824211 0.069194303392389
61 69 2 0.83333333333333 0.062972000241462 -0.4493 0.30005468824211 0.069194303392389
62 64 2 0.83333333333333 0.062972000241462 -0.049127999978049 0.26014242576773 0.020919999936173
62 65 2 0.83333333333333 0.062972000241462 -0.4493 0.30005468824211 0.069194303392389
62 69 2 0.83333333333333 0.062972000241462 -0.4493 0.30005468824211 0.069194303392389
64 66 2 0.83333333333333 -0.049127999978049 0.099869000071341 0.26014242576773 0.020919999936173
64 67 2 0.83333333333333 -0.049127999978049 0.099869000071341 0.26014242576773 0.020919999936173
64 68 2 0.83333333333333 -0.049127999978049 0.099869000071341 0.26014242576773 0.020919999936173
64 70 2 0.83333333333333 -0.049127999978049 0.099869000071341 0.26014242576773 0.020919999936173
64 71 2 0.83333333333333 -0.049127999978049 0.099869000071341 0.26014242576773 0.020919999936173
64 72 2 0.83333333333333 -0.049127999978049 0.099869000071341 0.26014242576773 0.020919999936173
65 70 2 0.83333333333333 -0.4493 0.099869000071341 0.30005468824211 0.069194303392389
65 71 2 0.83333333333333 -0.4493 0.099869000071341 0.30005468824211 0.069194303392389
65 72 2 0.83333333333333 -0.4493 0.099869000071341 0.30005468824211 0.069194303392389
66 69 2 0.83333333333333 0.099869000071341 -0.4493 0.30005468824211 0.069194303392389
67 69 2 0.83333333333333 0.099869000071341 -0.4493 0.30005468824211 0.069194303392389
68 69 2 0.83333333333333 0.099869000071341 -0.4493 0.30005468824211 0.069194303392389

[ angles ]
;    ai     aj     ak funct         c0         c1         c2         c3
     65     63     69     1   112.0500483 394.969600
     60     63     65     1   112.0500483 394.969600
     60     63     69     1   112.0500483 394.969600
     57     60     63     1   112.0500483 394.969600
     54     57     60     1   112.0500483 394.969600
     50     48     54     1   112.0500483 394.969600
     48     54     57     1   112.0500483 394.969600
     38     29     40     1   110.6300475 528.941280
     38     48     50     1   110.6300475 528.941280
     38     48     54     1   110.6300475 528.941280
     35     38     48     1   110.6300475 528.941280
     32     35     38     1   110.6300475 528.941280
     30     29     38     1   110.6300475 528.941280
     30     29     40     1   110.6300475 528.941280
     30     32     35     1   110.6300475 528.941280
     29     30     32     1   110.6300475 528.941280
     29     38     35     1   110.6300475 528.941280
     29     38     48     1   110.6300475 528.941280
     26     29     30     1   110.6300475 528.941280
     26     29     38     1   110.6300475 528.941280
     26     29     40     1   110.6300475 528.941280
     23     26     29     1   110.6300475 528.941280
     22     20     23     1   110.6300475 528.941280
     20     18     30     1   110.6300475 528.941280
     20     22     44     1   110.6300475 528.941280
     20     23     26     1   110.6300475 528.941280
     18     20     22     1   110.6300475 528.941280
     18     20     23     1   110.6300475 528.941280
     18     30     29     1   110.6300475 528.941280
     18     30     32     1   110.6300475 528.941280
     15     18     20     1   110.6300475 528.941280
     15     18     30     1   110.6300475 528.941280
     13     12     22     1   123.4200531 538.313440
     13     15     18     1   111.4400476 531.619040
     12     13     15     1   123.4200531 538.313440
     12     22     20     1   111.4400476 531.619040
     12     22     44     1   111.4400476 531.619040
      9      7     73     1   109.4300470 566.680960
      9     12     13     1   123.4200531 538.313440
      9     12     22     1   116.5200502 524.673600
      7      9     12     1   111.4400476 531.619040
      4      1     22     1   110.6300475 528.941280
      4      7      9     1   110.6300475 528.941280
      4      7     73     1   109.4300470 566.680960
      1      4      7     1   110.6300475 528.941280
      1     22     12     1   111.4400476 531.619040
      1     22     20     1   110.6300475 528.941280
      1     22     44     1   110.6300475 528.941280
     71     69     72     1   108.3500467 329.950240
     70     69     71     1   108.3500467 329.950240
     70     69     72     1   108.3500467 329.950240
     67     65     68     1   108.3500467 329.950240
     66     65     67     1   108.3500467 329.950240
     66     65     68     1   108.3500467 329.950240
     64     63     65     1   110.0500475 388.024160
     64     63     69     1   110.0500475 388.024160
     63     65     66     1   110.0500475 388.024160
     63     65     67     1   110.0500475 388.024160
     63     65     68     1   110.0500475 388.024160
     63     69     70     1   110.0500475 388.024160
     63     69     71     1   110.0500475 388.024160
     63     69     72     1   110.0500475 388.024160
     62     60     63     1   110.0500475 388.024160
     61     60     62     1   108.3500467 329.950240
     61     60     63     1   110.0500475 388.024160
     60     63     64     1   110.0500475 388.024160
     59     57     60     1   110.0500475 388.024160
     58     57     59     1   108.3500467 329.950240
     58     57     60     1   110.0500475 388.024160
     57     60     61     1   110.0500475 388.024160
     57     60     62     1   110.0500475 388.024160
     56     54     57     1   110.0500475 388.024160
     55     54     56     1   108.3500467 329.950240
     55     54     57     1   110.0500475 388.024160
     54     57     58     1   110.0500475 388.024160
     54     57     59     1   110.0500475 388.024160
     52     50     53     1   108.3500467 329.950240
     51     50     52     1   108.3500467 329.950240
     51     50     53     1   108.3500467 329.950240
     49     48     50     1   110.0500475 388.024160
     49     48     54     1   110.0500475 388.024160
     48     50     51     1   110.0500475 388.024160
     48     50     52     1   110.0500475 388.024160
     48     50     53     1   110.0500475 388.024160
     48     54     55     1   110.0500475 388.024160
     48     54     56     1   110.0500475 388.024160
     46     44     47     1   108.3500467 329.950240
     45     44     46     1   108.3500467 329.950240
     45     44     47     1   108.3500467 329.950240
     42     40     43     1   108.3500467 329.950240
     41     40     42     1   108.3500467 329.950240
     41     40     43     1   108.3500467 329.950240
     39     38     48     1   110.0500475 388.024160
     38     48     49     1   110.0500475 388.024160
     37     35     38     1   110.0500475 388.024160
     36     35     37     1   108.3500467 329.950240
     36     35     38     1   110.0500475 388.024160
     35     38     39     1   110.0500475 388.024160
     34     32     35     1   110.0500475 388.024160
     33     32     34     1   108.3500467 329.950240
     33     32     35     1   110.0500475 388.024160
     32     35     36     1   110.0500475 388.024160
     32     35     37     1   110.0500475 388.024160
     31     30     32     1   110.0500475 388.024160
     30     32     33     1   110.0500475 388.024160
     30     32     34     1   110.0500475 388.024160
     29     30     31     1   110.0500475 388.024160
     29     38     39     1   110.0500475 388.024160
     29     40     41     1   110.0500475 388.024160
     29     40     42     1   110.0500475 388.024160
     29     40     43     1   110.0500475 388.024160
     28     26     29     1   110.0500475 388.024160
     27     26     28     1   108.3500467 329.950240
     27     26     29     1   110.0500475 388.024160
     25     23     26     1   110.0500475 388.024160
     24     23     25     1   108.3500467 329.950240
     24     23     26     1   110.0500475 388.024160
     23     26     27     1   110.0500475 388.024160
     23     26     28     1   110.0500475 388.024160
     22     44     45     1   110.0500475 388.024160
     22     44     46     1   110.0500475 388.024160
     22     44     47     1   110.0500475 388.024160
     21     20     22     1   110.0500475 388.024160
     21     20     23     1   110.0500475 388.024160
     20     23     24     1   110.0500475 388.024160
     20     23     25     1   110.0500475 388.024160
     19     18     20     1   110.0500475 388.024160
     19     18     30     1   110.0500475 388.024160
     18     20     21     1   110.0500475 388.024160
     18     30     31     1   110.0500475 388.024160
     17     15     18     1   110.0500475 388.024160
     16     15     17     1   108.3500467 329.950240
     16     15     18     1   110.0500475 388.024160
     15     18     19     1   110.0500475 388.024160
     14     13     15     1   117.3000503 382.082880
     13     15     16     1   110.4900475 393.547040
     13     15     17     1   110.4900475 393.547040
     12     13     14     1   120.9400517 418.734720
     11      9     12     1   110.4900475 393.547040
     10      9     11     1   108.3500467 329.950240
     10      9     12     1   110.4900475 393.547040
      8      7      9     1   110.0700471 387.940480
      8      7     73     1   109.8800469 426.516960
      7      9     10     1   110.0500475 388.024160
      7      9     11     1   110.0500475 388.024160
      7     73     74     1   108.1600465 394.049120
      6      4      7     1   110.0500475 388.024160
      5      4      6     1   108.3500467 329.950240
      5      4      7     1   110.0500475 388.024160
      4      7      8     1   110.0700471 387.940480
      3      1      4     1   110.0500475 388.024160
      3      1     22     1   110.0500475 388.024160
      2      1      3     1   108.3500467 329.950240
      2      1      4     1   110.0500475 388.024160
      2      1     22     1   110.0500475 388.024160
      1      4      5     1   110.0500475 388.024160
      1      4      6     1   110.0500475 388.024160


[ dihedrals ]
;    ai     aj     ak     al funct         c0         c1         c2         c3         c4         c5
     57     60     63     65     1  0.0000000  0.4184000  1
     57     60     63     65     1  0.0000000  0.4184000  2
     57     60     63     65     1  0.0000000  1.2552000  3
     57     60     63     65     1  0.0000000  0.4184000  4
     57     60     63     65     1  0.0000000  0.4184000  5
     57     60     63     69     1  0.0000000  0.4184000  1
     57     60     63     69     1  0.0000000  0.4184000  2
     57     60     63     69     1  0.0000000  1.2552000  3
     57     60     63     69     1  0.0000000  0.4184000  4
     57     60     63     69     1  0.0000000  0.4184000  5
     54     57     60     63     1  0.0000000  0.4184000  1
     54     57     60     63     1  0.0000000  0.4184000  2
     54     57     60     63     1  0.0000000  1.2552000  3
     54     57     60     63     1  0.0000000  0.4184000  4
     54     57     60     63     1  0.0000000  0.4184000  5
     50     48     54     57     1  0.0000000  0.4184000  1
     50     48     54     57     1  0.0000000  0.4184000  2
     50     48     54     57     1  0.0000000  1.2552000  3
     50     48     54     57     1  0.0000000  0.4184000  4
     50     48     54     57     1  0.0000000  0.4184000  5
     48     54     57     60     1  0.0000000  0.4184000  1
     48     54     57     60     1  0.0000000  0.4184000  2
     48     54     57     60     1  0.0000000  1.2552000  3
     48     54     57     60     1  0.0000000  0.4184000  4
     48     54     57     60     1  0.0000000  0.4184000  5
     40     29     38     48     1  180.0000771  0.8368000  1
     40     29     38     48     1  180.0000771  1.0460000  2
     40     29     38     48     1  0.0000000  0.7531200  3
     38     48     54     57     1  180.0000771  0.8368000  1
     38     48     54     57     1  180.0000771  1.0460000  2
     38     48     54     57     1  0.0000000  0.7531200  3
     35     38     29     40     1  180.0000771  0.8368000  1
     35     38     29     40     1  180.0000771  1.0460000  2
     35     38     29     40     1  0.0000000  0.7531200  3
     35     38     48     50     1  180.0000771  0.8368000  1
     35     38     48     50     1  180.0000771  1.0460000  2
     35     38     48     50     1  0.0000000  0.7531200  3
     35     38     48     54     1  180.0000771  0.8368000  1
     35     38     48     54     1  180.0000771  1.0460000  2
     35     38     48     54     1  0.0000000  0.7531200  3
     32     30     29     38     1  180.0000771  0.8368000  1
     32     30     29     38     1  180.0000771  1.0460000  2
     32     30     29     38     1  0.0000000  0.7531200  3
     32     30     29     40     1  180.0000771  0.8368000  1
     32     30     29     40     1  180.0000771  1.0460000  2
     32     30     29     40     1  0.0000000  0.7531200  3
     32     35     38     48     1  180.0000771  0.8368000  1
     32     35     38     48     1  180.0000771  1.0460000  2
     32     35     38     48     1  0.0000000  0.7531200  3
     30     29     38     35     1  180.0000771  0.8368000  1
     30     29     38     35     1  180.0000771  1.0460000  2
     30     29     38     35     1  0.0000000  0.7531200  3
     30     29     38     48     1  180.0000771  0.8368000  1
     30     29     38     48     1  180.0000771  1.0460000  2
     30     29     38     48     1  0.0000000  0.7531200  3
     30     32     35     38     1  180.0000771  0.8368000  1
     30     32     35     38     1  180.0000771  1.0460000  2
     30     32     35     38     1  0.0000000  0.7531200  3
     29     30     32     35     1  180.0000771  0.8368000  1
     29     30     32     35     1  180.0000771  1.0460000  2
     29     30     32     35     1  0.0000000  0.7531200  3
     29     38     35     32     1  180.0000771  0.8368000  1
     29     38     35     32     1  180.0000771  1.0460000  2
     29     38     35     32     1  0.0000000  0.7531200  3
     29     38     48     50     1  180.0000771  0.8368000  1
     29     38     48     50     1  180.0000771  1.0460000  2
     29     38     48     50     1  0.0000000  0.7531200  3
     29     38     48     54     1  180.0000771  0.8368000  1
     29     38     48     54     1  180.0000771  1.0460000  2
     29     38     48     54     1  0.0000000  0.7531200  3
     26     29     30     32     1  180.0000771  0.8368000  1
     26     29     30     32     1  180.0000771  1.0460000  2
     26     29     30     32     1  0.0000000  0.7531200  3
     26     29     38     35     1  180.0000771  0.8368000  1
     26     29     38     35     1  180.0000771  1.0460000  2
     26     29     38     35     1  0.0000000  0.7531200  3
     26     29     38     48     1  180.0000771  0.8368000  1
     26     29     38     48     1  180.0000771  1.0460000  2
     26     29     38     48     1  0.0000000  0.7531200  3
     23     20     18     30     1  180.0000771  0.8368000  1
     23     20     18     30     1  180.0000771  1.0460000  2
     23     20     18     30     1  0.0000000  0.7531200  3
     23     20     22     44     1  180.0000771  0.8368000  1
     23     20     22     44     1  180.0000771  1.0460000  2
     23     20     22     44     1  0.0000000  0.7531200  3
     23     26     29     30     1  180.0000771  0.8368000  1
     23     26     29     30     1  180.0000771  1.0460000  2
     23     26     29     30     1  0.0000000  0.7531200  3
     23     26     29     38     1  180.0000771  0.8368000  1
     23     26     29     38     1  180.0000771  1.0460000  2
     23     26     29     38     1  0.0000000  0.7531200  3
     23     26     29     40     1  180.0000771  0.8368000  1
     23     26     29     40     1  180.0000771  1.0460000  2
     23     26     29     40     1  0.0000000  0.7531200  3
     22     20     18     30     1  180.0000771  0.8368000  1
     22     20     18     30     1  180.0000771  1.0460000  2
     22     20     18     30     1  0.0000000  0.7531200  3
     22     20     23     26     1  180.0000771  0.8368000  1
     22     20     23     26     1  180.0000771  1.0460000  2
     22     20     23     26     1  0.0000000  0.7531200  3
     20     18     30     29     1  180.0000771  0.8368000  1
     20     18     30     29     1  180.0000771  1.0460000  2
     20     18     30     29     1  0.0000000  0.7531200  3
     20     18     30     32     1  180.0000771  0.8368000  1
     20     18     30     32     1  180.0000771  1.0460000  2
     20     18     30     32     1  0.0000000  0.7531200  3
     20     23     26     29     1  180.0000771  0.8368000  1
     20     23     26     29     1  180.0000771  1.0460000  2
     20     23     26     29     1  0.0000000  0.7531200  3
     18     20     22     44     1  180.0000771  0.8368000  1
     18     20     22     44     1  180.0000771  1.0460000  2
     18     20     22     44     1  0.0000000  0.7531200  3
     18     20     23     26     1  180.0000771  0.8368000  1
     18     20     23     26     1  180.0000771  1.0460000  2
     18     20     23     26     1  0.0000000  0.7531200  3
     18     30     29     26     1  180.0000771  0.8368000  1
     18     30     29     26     1  180.0000771  1.0460000  2
     18     30     29     26     1  0.0000000  0.7531200  3
     18     30     29     38     1  180.0000771  0.8368000  1
     18     30     29     38     1  180.0000771  1.0460000  2
     18     30     29     38     1  0.0000000  0.7531200  3
     18     30     29     40     1  180.0000771  0.8368000  1
     18     30     29     40     1  180.0000771  1.0460000  2
     18     30     29     40     1  0.0000000  0.7531200  3
     18     30     32     35     1  180.0000771  0.8368000  1
     18     30     32     35     1  180.0000771  1.0460000  2
     18     30     32     35     1  0.0000000  0.7531200  3
     15     13     12     22     1  180.0000771  7.9496000  1
     15     13     12     22     1  180.0000771  27.8236000  2
     15     18     20     22     1  180.0000771  0.8368000  1
     15     18     20     22     1  180.0000771  1.0460000  2
     15     18     20     22     1  0.0000000  0.7531200  3
     15     18     20     23     1  180.0000771  0.8368000  1
     15     18     20     23     1  180.0000771  1.0460000  2
     15     18     20     23     1  0.0000000  0.7531200  3
     15     18     30     29     1  180.0000771  0.8368000  1
     15     18     30     29     1  180.0000771  1.0460000  2
     15     18     30     29     1  0.0000000  0.7531200  3
     15     18     30     32     1  180.0000771  0.8368000  1
     15     18     30     32     1  180.0000771  1.0460000  2
     15     18     30     32     1  0.0000000  0.7531200  3
     13     12     22     20     1  0.0000000  0.0000000  2
     13     12     22     44     1  0.0000000  0.0000000  2
     13     15     18     20     1  0.0000000  0.0000000  1
     13     15     18     20     1  0.0000000  0.0000000  2
     13     15     18     20     1  0.0000000  0.0000000  3
     13     15     18     20     1  0.0000000  0.0000000  4
     13     15     18     20     1  0.0000000  0.0000000  5
     13     15     18     30     1  0.0000000  0.0000000  1
     13     15     18     30     1  0.0000000  0.0000000  2
     13     15     18     30     1  0.0000000  0.0000000  3
     13     15     18     30     1  0.0000000  0.0000000  4
     13     15     18     30     1  0.0000000  0.0000000  5
     12      9      7     73     1  0.0000000  0.6510304  3
     12     13     15     18     1  0.0000000  0.0000000  2
     12     22     20     18     1  0.0000000  0.0000000  1
     12     22     20     18     1  0.0000000  0.0000000  2
     12     22     20     18     1  0.0000000  0.0000000  3
     12     22     20     18     1  0.0000000  0.0000000  4
     12     22     20     18     1  0.0000000  0.0000000  5
     12     22     20     23     1  0.0000000  0.0000000  1
     12     22     20     23     1  0.0000000  0.0000000  2
     12     22     20     23     1  0.0000000  0.0000000  3
     12     22     20     23     1  0.0000000  0.0000000  4
     12     22     20     23     1  0.0000000  0.0000000  5
      9     12     13     15     1  180.0000771  7.9496000  1
      9     12     13     15     1  180.0000771  27.8236000  2
      9     12     22     20     1  0.0000000  0.0000000  2
      9     12     22     44     1  0.0000000  0.0000000  2
     22      1      4      7     1  180.0000771  0.8368000  1
     22      1      4      7     1  180.0000771  1.0460000  2
     22      1      4      7     1  0.0000000  0.7531200  3
      7      9     12     13     1  0.0000000  0.0000000  2
      7      9     12     22     1  0.0000000  0.0000000  2
      4      1     22     12     1  0.0000000  0.0000000  1
      4      1     22     12     1  0.0000000  0.0000000  2
      4      1     22     12     1  0.0000000  0.0000000  3
      4      1     22     12     1  0.0000000  0.0000000  4
      4      1     22     12     1  0.0000000  0.0000000  5
      4      1     22     20     1  180.0000771  0.8368000  1
      4      1     22     20     1  180.0000771  1.0460000  2
      4      1     22     20     1  0.0000000  0.7531200  3
      4      1     22     44     1  180.0000771  0.8368000  1
      4      1     22     44     1  180.0000771  1.0460000  2
      4      1     22     44     1  0.0000000  0.7531200  3
      4      7      9     12     1  0.0000000  0.0000000  1
      4      7      9     12     1  0.0000000  0.0000000  2
      4      7      9     12     1  0.0000000  0.0000000  3
      4      7      9     12     1  0.0000000  0.0000000  4
      4      7      9     12     1  0.0000000  0.0000000  5
      1      4      7      9     1  180.0000771  0.8368000  1
      1      4      7      9     1  180.0000771  1.0460000  2
      1      4      7      9     1  0.0000000  0.7531200  3
      1      4      7     73     1  0.0000000  0.6510304  3
      1     22     12      9     1  0.0000000  0.0000000  2
      1     22     12     13     1  0.0000000  0.0000000  2
      1     22     20     18     1  180.0000771  0.8368000  1
      1     22     20     18     1  180.0000771  1.0460000  2
      1     22     20     18     1  0.0000000  0.7531200  3
      1     22     20     23     1  180.0000771  0.8368000  1
      1     22     20     23     1  180.0000771  1.0460000  2
      1     22     20     23     1  0.0000000  0.7531200  3
      9     22     12     13     4  180.0000771  4.6024000  2
     68     65     63     69     1  0.0000000  0.6694400  3
     67     65     63     69     1  0.0000000  0.6694400  3
     66     65     63     69     1  0.0000000  0.6694400  3
     65     63     69     70     1  0.0000000  0.6694400  3
     65     63     69     71     1  0.0000000  0.6694400  3
     65     63     69     72     1  0.0000000  0.6694400  3
     64     63     65     66     1  0.0000000  0.6276000  3
     64     63     65     67     1  0.0000000  0.6276000  3
     64     63     65     68     1  0.0000000  0.6276000  3
     64     63     69     70     1  0.0000000  0.6276000  3
     64     63     69     71     1  0.0000000  0.6276000  3
     64     63     69     72     1  0.0000000  0.6276000  3
     62     60     63     64     1  0.0000000  0.6276000  3
     62     60     63     65     1  0.0000000  0.6694400  3
     62     60     63     69     1  0.0000000  0.6694400  3
     61     60     63     64     1  0.0000000  0.6276000  3
     61     60     63     65     1  0.0000000  0.6694400  3
     61     60     63     69     1  0.0000000  0.6694400  3
     60     63     65     66     1  0.0000000  0.6694400  3
     60     63     65     67     1  0.0000000  0.6694400  3
     60     63     65     68     1  0.0000000  0.6694400  3
     60     63     69     70     1  0.0000000  0.6694400  3
     60     63     69     71     1  0.0000000  0.6694400  3
     60     63     69     72     1  0.0000000  0.6694400  3
     59     57     60     61     1  0.0000000  0.6276000  3
     59     57     60     62     1  0.0000000  0.6276000  3
     59     57     60     63     1  0.0000000  0.6694400  3
     58     57     60     61     1  0.0000000  0.6276000  3
     58     57     60     62     1  0.0000000  0.6276000  3
     58     57     60     63     1  0.0000000  0.6694400  3
     57     60     63     64     1  0.0000000  0.6694400  3
     56     54     57     58     1  0.0000000  0.6276000  3
     56     54     57     59     1  0.0000000  0.6276000  3
     56     54     57     60     1  0.0000000  0.6694400  3
     55     54     57     58     1  0.0000000  0.6276000  3
     55     54     57     59     1  0.0000000  0.6276000  3
     55     54     57     60     1  0.0000000  0.6694400  3
     54     57     60     61     1  0.0000000  0.6694400  3
     54     57     60     62     1  0.0000000  0.6694400  3
     53     50     48     54     1  0.0000000  0.6694400  3
     52     50     48     54     1  0.0000000  0.6694400  3
     51     50     48     54     1  0.0000000  0.6694400  3
     50     48     54     55     1  0.0000000  0.6694400  3
     50     48     54     56     1  0.0000000  0.6694400  3
     49     48     50     51     1  0.0000000  0.6276000  3
     49     48     50     52     1  0.0000000  0.6276000  3
     49     48     50     53     1  0.0000000  0.6276000  3
     49     48     54     55     1  0.0000000  0.6276000  3
     49     48     54     56     1  0.0000000  0.6276000  3
     49     48     54     57     1  0.0000000  0.6694400  3
     48     54     57     58     1  0.0000000  0.6694400  3
     48     54     57     59     1  0.0000000  0.6694400  3
     39     38     29     40     1  0.0000000  0.6694400  3
     39     38     48     49     1  0.0000000  0.6276000  3
     39     38     48     50     1  0.0000000  0.6694400  3
     39     38     48     54     1  0.0000000  0.6694400  3
     38     29     40     41     1  0.0000000  0.6694400  3
     38     29     40     42     1  0.0000000  0.6694400  3
     38     29     40     43     1  0.0000000  0.6694400  3
     38     48     50     51     1  0.0000000  0.6694400  3
     38     48     50     52     1  0.0000000  0.6694400  3
     38     48     50     53     1  0.0000000  0.6694400  3
     38     48     54     55     1  0.0000000  0.6694400  3
     38     48     54     56     1  0.0000000  0.6694400  3
     37     35     38     39     1  0.0000000  0.6276000  3
     37     35     38     48     1  0.0000000  0.6694400  3
     36     35     38     39     1  0.0000000  0.6276000  3
     36     35     38     48     1  0.0000000  0.6694400  3
     35     38     48     49     1  0.0000000  0.6694400  3
     34     32     35     36     1  0.0000000  0.6276000  3
     34     32     35     37     1  0.0000000  0.6276000  3
     34     32     35     38     1  0.0000000  0.6694400  3
     33     32     35     36     1  0.0000000  0.6276000  3
     33     32     35     37     1  0.0000000  0.6276000  3
     33     32     35     38     1  0.0000000  0.6694400  3
     32     35     38     39     1  0.0000000  0.6694400  3
     31     30     29     38     1  0.0000000  0.6694400  3
     31     30     29     40     1  0.0000000  0.6694400  3
     31     30     32     33     1  0.0000000  0.6276000  3
     31     30     32     34     1  0.0000000  0.6276000  3
     31     30     32     35     1  0.0000000  0.6694400  3
     30     29     38     39     1  0.0000000  0.6694400  3
     30     29     40     41     1  0.0000000  0.6694400  3
     30     29     40     42     1  0.0000000  0.6694400  3
     30     29     40     43     1  0.0000000  0.6694400  3
     30     32     35     36     1  0.0000000  0.6694400  3
     30     32     35     37     1  0.0000000  0.6694400  3
     29     30     32     33     1  0.0000000  0.6694400  3
     29     30     32     34     1  0.0000000  0.6694400  3
     29     38     35     36     1  0.0000000  0.6694400  3
     29     38     35     37     1  0.0000000  0.6694400  3
     29     38     48     49     1  0.0000000  0.6694400  3
     28     26     29     30     1  0.0000000  0.6694400  3
     28     26     29     38     1  0.0000000  0.6694400  3
     28     26     29     40     1  0.0000000  0.6694400  3
     27     26     29     30     1  0.0000000  0.6694400  3
     27     26     29     38     1  0.0000000  0.6694400  3
     27     26     29     40     1  0.0000000  0.6694400  3
     26     29     30     31     1  0.0000000  0.6694400  3
     26     29     38     39     1  0.0000000  0.6694400  3
     26     29     40     41     1  0.0000000  0.6694400  3
     26     29     40     42     1  0.0000000  0.6694400  3
     26     29     40     43     1  0.0000000  0.6694400  3
     25     23     26     27     1  0.0000000  0.6276000  3
     25     23     26     28     1  0.0000000  0.6276000  3
     25     23     26     29     1  0.0000000  0.6694400  3
     24     23     26     27     1  0.0000000  0.6276000  3
     24     23     26     28     1  0.0000000  0.6276000  3
     24     23     26     29     1  0.0000000  0.6694400  3
     22     20     23     24     1  0.0000000  0.6694400  3
     22     20     23     25     1  0.0000000  0.6694400  3
     21     20     18     30     1  0.0000000  0.6694400  3
     21     20     22     44     1  0.0000000  0.6694400  3
     21     20     23     24     1  0.0000000  0.6276000  3
     21     20     23     25     1  0.0000000  0.6276000  3
     21     20     23     26     1  0.0000000  0.6694400  3
     20     18     30     31     1  0.0000000  0.6694400  3
     20     22     44     45     1  0.0000000  0.6694400  3
     20     22     44     46     1  0.0000000  0.6694400  3
     20     22     44     47     1  0.0000000  0.6694400  3
     20     23     26     27     1  0.0000000  0.6694400  3
     20     23     26     28     1  0.0000000  0.6694400  3
     19     18     20     21     1  0.0000000  0.6276000  3
     19     18     20     22     1  0.0000000  0.6694400  3
     19     18     20     23     1  0.0000000  0.6694400  3
     19     18     30     29     1  0.0000000  0.6694400  3
     19     18     30     31     1  0.0000000  0.6276000  3
     19     18     30     32     1  0.0000000  0.6694400  3
     18     20     23     24     1  0.0000000  0.6694400  3
     18     20     23     25     1  0.0000000  0.6694400  3
     18     30     32     33     1  0.0000000  0.6694400  3
     18     30     32     34     1  0.0000000  0.6694400  3
     17     15     18     19     1  0.0000000  0.6276000  3
     17     15     18     20     1  0.0000000  0.6694400  3
     17     15     18     30     1  0.0000000  0.6694400  3
     16     15     18     19     1  0.0000000  0.6276000  3
     16     15     18     20     1  0.0000000  0.6694400  3
     16     15     18     30     1  0.0000000  0.6694400  3
     15     18     20     21     1  0.0000000  0.6694400  3
     15     18     30     31     1  0.0000000  0.6694400  3
     14     13     12     22     1  180.0000771  27.8236000  2
     14     13     15     16     1  0.0000000  0.0000000  2
     14     13     15     17     1  0.0000000  0.0000000  2
     14     13     15     18     1  0.0000000  0.0000000  2
     13     15     18     19     1  0.0000000  0.6510304  3
     12     13     15     16     1  0.0000000  4.8116000  1
     12     13     15     16     1  180.0000771  1.5899200  3
     12     13     15     17     1  0.0000000  4.8116000  1
     12     13     15     17     1  180.0000771  1.5899200  3
     12     22     20     21     1  0.0000000  0.6510304  3
     12     22     44     45     1  0.0000000  0.6510304  3
     12     22     44     46     1  0.0000000  0.6510304  3
     12     22     44     47     1  0.0000000  0.6510304  3
     11      9      7     73     1  0.0000000  1.0460000  1
     11      9      7     73     1  0.0000000  0.0000000  3
     11      9     12     13     1  0.0000000  4.8116000  1
     11      9     12     13     1  180.0000771  1.5899200  3
     11      9     12     22     1  0.0000000  0.0000000  2
     10      9      7     73     1  0.0000000  1.0460000  1
     10      9      7     73     1  0.0000000  0.0000000  3
     10      9     12     13     1  0.0000000  4.8116000  1
     10      9     12     13     1  180.0000771  1.5899200  3
     10      9     12     22     1  0.0000000  0.0000000  2
      9      7     73     74     1  0.0000000  1.0460000  1
      9      7     73     74     1  0.0000000  0.6694400  3
      9     12     13     14     1  180.0000771  27.8236000  2
      8      7      9     10     1  0.0000000  0.6510304  3
      8      7      9     11     1  0.0000000  0.6510304  3
      8      7      9     12     1  0.0000000  0.6510304  3
      8      7     73     74     1  0.0000000  2.0920000  3
     22      1      4      6     1  0.0000000  0.6694400  3
      6      4      7      8     1  0.0000000  0.6510304  3
      6      4      7      9     1  0.0000000  0.6694400  3
      6      4      7     73     1  0.0000000  1.0460000  1
      6      4      7     73     1  0.0000000  0.0000000  3
     22      1      4      5     1  0.0000000  0.6694400  3
      5      4      7      8     1  0.0000000  0.6510304  3
      5      4      7      9     1  0.0000000  0.6694400  3
      5      4      7     73     1  0.0000000  1.0460000  1
      5      4      7     73     1  0.0000000  0.0000000  3
      4      7      9     10     1  0.0000000  0.6694400  3
      4      7      9     11     1  0.0000000  0.6694400  3
      4      7     73     74     1  0.0000000  1.0460000  1
      4      7     73     74     1  0.0000000  0.6694400  3
      3      1      4      5     1  0.0000000  0.6276000  3
      3      1      4      6     1  0.0000000  0.6276000  3
      3      1      4      7     1  0.0000000  0.6694400  3
      3      1     22     12     1  0.0000000  0.6510304  3
      3      1     22     20     1  0.0000000  0.6694400  3
      3      1     22     44     1  0.0000000  0.6694400  3
      2      1      4      5     1  0.0000000  0.6276000  3
      2      1      4      6     1  0.0000000  0.6276000  3
      2      1      4      7     1  0.0000000  0.6694400  3
      2      1     22     12     1  0.0000000  0.6510304  3
      2      1     22     20     1  0.0000000  0.6694400  3
      2      1     22     44     1  0.0000000  0.6694400  3
      1      4      7      8     1  0.0000000  0.6527040  3
      1     22     20     21     1  0.0000000  0.6694400  3
      1     22     44     45     1  0.0000000  0.6694400  3
      1     22     44     46     1  0.0000000  0.6694400  3
      1     22     44     47     1  0.0000000  0.6694400  3
     15     12     13     14     4  180.0000771  4.6024000  2
