; Exact Amber Lipid21 v1.0 topology converted by ParmEd
; Explicit [pairs] preserve Lipid21-specific 1-4 scaling.
; Conversion contract: amber-explicit-pairs-v2 (independent of parent defaults).

[ moleculetype ]
; Name nrexcl
DAPC 3

[ atoms ]
; nr type resnr residue atom cgnr charge mass
1 L21_cD 1 DAPC C16X 1 0.03910000 12.010000
2 L21_hL 1 DAPC H16X 2 0.02884800 1.008000
3 L21_hL 1 DAPC H16Y 3 0.02884800 1.008000
4 L21_cB 1 DAPC C15X 4 -0.24414900 12.010000
5 L21_hB 1 DAPC H15X 5 0.13279300 1.008000
6 L21_cB 1 DAPC C14X 6 -0.22476900 12.010000
7 L21_hB 1 DAPC H14X 7 0.12961600 1.008000
8 L21_cD 1 DAPC C13X 8 0.05819700 12.010000
9 L21_hL 1 DAPC H13X 9 0.06135000 1.008000
10 L21_hL 1 DAPC H13Y 10 0.06135000 1.008000
11 L21_cB 1 DAPC C12X 11 -0.22016400 12.010000
12 L21_hB 1 DAPC H12X 12 0.13198600 1.008000
13 L21_cB 1 DAPC C11X 13 -0.22870400 12.010000
14 L21_hB 1 DAPC H11X 14 0.13134100 1.008000
15 L21_cD 1 DAPC C10X 15 0.09540600 12.010000
16 L21_hL 1 DAPC H10X 16 0.05114000 1.008000
17 L21_hL 1 DAPC H10Y 17 0.05114000 1.008000
18 L21_cB 1 DAPC C9X 18 -0.22869400 12.010000
19 L21_hB 1 DAPC H9X 19 0.13216700 1.008000
20 L21_cB 1 DAPC C8X 20 -0.22852700 12.010000
21 L21_hB 1 DAPC H8X 21 0.13473500 1.008000
22 L21_cD 1 DAPC C7X 22 0.05578400 12.010000
23 L21_hL 1 DAPC H7X 23 0.06277500 1.008000
24 L21_hL 1 DAPC H7Y 24 0.06277500 1.008000
25 L21_cB 1 DAPC C6X 25 -0.20678600 12.010000
26 L21_hB 1 DAPC H6X 26 0.12985800 1.008000
27 L21_cB 1 DAPC C5X 27 -0.26789000 12.010000
28 L21_hB 1 DAPC H5X 28 0.14357700 1.008000
29 L21_cD 1 DAPC C4X 29 0.03138200 12.010000
30 L21_hL 1 DAPC H4X 30 0.03870800 1.008000
31 L21_hL 1 DAPC H4Y 31 0.03870800 1.008000
32 L21_cD 1 DAPC C3X 32 0.02562600 12.010000
33 L21_hL 1 DAPC H3X 33 0.02511700 1.008000
34 L21_hL 1 DAPC H3Y 34 0.02511700 1.008000
35 L21_cD 1 DAPC C2X 35 -0.12393500 12.010000
36 L21_hL 1 DAPC H2X 36 0.02453500 1.008000
37 L21_hL 1 DAPC H2Y 37 0.02453500 1.008000
38 L21_cD 1 DAPC C17X 38 -0.02839800 12.010000
39 L21_hL 1 DAPC H17X 39 0.01958100 1.008000
40 L21_hL 1 DAPC H17Y 40 0.01958100 1.008000
41 L21_cD 1 DAPC C18X 41 -0.01977200 12.010000
42 L21_hL 1 DAPC H18X 42 0.01421800 1.008000
43 L21_hL 1 DAPC H18Y 43 0.01421800 1.008000
44 L21_cD 1 DAPC C19X 44 0.02495700 12.010000
45 L21_hL 1 DAPC H19X 45 0.00542600 1.008000
46 L21_hL 1 DAPC H19Y 46 0.00542600 1.008000
47 L21_cD 1 DAPC C20X 47 -0.10930200 12.010000
48 L21_hL 1 DAPC H20X 48 0.02372300 1.008000
49 L21_hL 1 DAPC H20Y 49 0.02372300 1.008000
50 L21_hL 1 DAPC H20Z 50 0.02372300 1.008000
51 L21_cC 1 DAPC C11 51 0.91040300 12.010000
52 L21_oC 1 DAPC O12 52 -0.67156600 16.000000
53 L21_oS 1 DAPC O11 53 -0.57548900 16.000000
54 L21_cA 1 DAPC C1 54 0.19693900 12.010000
55 L21_hE 1 DAPC HR 55 0.07046900 1.008000
56 L21_hE 1 DAPC HS 56 0.07046900 1.008000
57 L21_cA 1 DAPC C2 57 0.28124200 12.010000
58 L21_hE 1 DAPC HX 58 0.06325300 1.008000
59 L21_cA 1 DAPC C3 59 0.01745900 12.010000
60 L21_hE 1 DAPC HA 60 0.09559100 1.008000
61 L21_hE 1 DAPC HB 61 0.09559100 1.008000
62 L21_oT 1 DAPC O31 62 -0.50948000 16.000000
63 L21_pA 1 DAPC P31 63 1.33972100 30.970000
64 L21_oT 1 DAPC O32 64 -0.50817600 16.000000
65 L21_cA 1 DAPC C31 65 0.16680100 12.010000
66 L21_hE 1 DAPC H1A 66 0.07853400 1.008000
67 L21_hE 1 DAPC H1B 67 0.07853400 1.008000
68 L21_cA 1 DAPC C32 68 -0.17082400 12.010000
69 L21_hX 1 DAPC H2A 69 0.13641500 1.008000
70 L21_hX 1 DAPC H2B 70 0.13641500 1.008000
71 L21_nA 1 DAPC N31 71 0.24526200 14.010000
72 L21_cA 1 DAPC C33 72 -0.33897300 12.010000
73 L21_hX 1 DAPC H3A 73 0.17223000 1.008000
74 L21_hX 1 DAPC H3B 74 0.17223000 1.008000
75 L21_hX 1 DAPC H3C 75 0.17223000 1.008000
76 L21_cA 1 DAPC C34 76 -0.33897300 12.010000
77 L21_hX 1 DAPC H4A 77 0.17223000 1.008000
78 L21_hX 1 DAPC H4B 78 0.17223000 1.008000
79 L21_hX 1 DAPC H4C 79 0.17223000 1.008000
80 L21_cA 1 DAPC C35 80 -0.33897300 12.010000
81 L21_hX 1 DAPC H5A 81 0.17223000 1.008000
82 L21_hX 1 DAPC H5B 82 0.17223000 1.008000
83 L21_hX 1 DAPC H5C 83 0.17223000 1.008000
84 L21_oP 1 DAPC O33 84 -0.87581200 16.000000
85 L21_oP 1 DAPC O34 85 -0.87581200 16.000000
86 L21_oS 1 DAPC O21 86 -0.55294800 16.000000
87 L21_cC 1 DAPC C21 87 0.89761300 12.010000
88 L21_oC 1 DAPC O22 88 -0.67375500 16.000000
89 L21_cD 1 DAPC C16Y 89 0.03910000 12.010000
90 L21_hL 1 DAPC H16U 90 0.02884800 1.008000
91 L21_hL 1 DAPC H16V 91 0.02884800 1.008000
92 L21_cB 1 DAPC C15Y 92 -0.24414900 12.010000
93 L21_hB 1 DAPC H15U 93 0.13279300 1.008000
94 L21_cB 1 DAPC C14Y 94 -0.22476900 12.010000
95 L21_hB 1 DAPC H14U 95 0.12961600 1.008000
96 L21_cD 1 DAPC C13Y 96 0.05819700 12.010000
97 L21_hL 1 DAPC H13U 97 0.06135000 1.008000
98 L21_hL 1 DAPC H13V 98 0.06135000 1.008000
99 L21_cB 1 DAPC C12Y 99 -0.22016400 12.010000
100 L21_hB 1 DAPC H12U 100 0.13198600 1.008000
101 L21_cB 1 DAPC C11Y 101 -0.22870400 12.010000
102 L21_hB 1 DAPC H11U 102 0.13134100 1.008000
103 L21_cD 1 DAPC C10Y 103 0.09540600 12.010000
104 L21_hL 1 DAPC H10U 104 0.05114000 1.008000
105 L21_hL 1 DAPC H10V 105 0.05114000 1.008000
106 L21_cB 1 DAPC C9Y 106 -0.22869400 12.010000
107 L21_hB 1 DAPC H9U 107 0.13216700 1.008000
108 L21_cB 1 DAPC C8Y 108 -0.22852700 12.010000
109 L21_hB 1 DAPC H8U 109 0.13473500 1.008000
110 L21_cD 1 DAPC C7Y 110 0.05578400 12.010000
111 L21_hL 1 DAPC H7U 111 0.06277500 1.008000
112 L21_hL 1 DAPC H7V 112 0.06277500 1.008000
113 L21_cB 1 DAPC C6Y 113 -0.20678600 12.010000
114 L21_hB 1 DAPC H6U 114 0.12985800 1.008000
115 L21_cB 1 DAPC C5Y 115 -0.26789000 12.010000
116 L21_hB 1 DAPC H5U 116 0.14357700 1.008000
117 L21_cD 1 DAPC C4Y 117 0.03138200 12.010000
118 L21_hL 1 DAPC H4U 118 0.03870800 1.008000
119 L21_hL 1 DAPC H4V 119 0.03870800 1.008000
120 L21_cD 1 DAPC C3Y 120 0.02562600 12.010000
121 L21_hL 1 DAPC H3U 121 0.02511700 1.008000
122 L21_hL 1 DAPC H3V 122 0.02511700 1.008000
123 L21_cD 1 DAPC C2Y 123 -0.12393500 12.010000
124 L21_hL 1 DAPC H2U 124 0.02453500 1.008000
125 L21_hL 1 DAPC H2V 125 0.02453500 1.008000
126 L21_cD 1 DAPC C17Y 126 -0.02839800 12.010000
127 L21_hL 1 DAPC H17U 127 0.01958100 1.008000
128 L21_hL 1 DAPC H17V 128 0.01958100 1.008000
129 L21_cD 1 DAPC C18Y 129 -0.01977200 12.010000
130 L21_hL 1 DAPC H18U 130 0.01421800 1.008000
131 L21_hL 1 DAPC H18V 131 0.01421800 1.008000
132 L21_cD 1 DAPC C19Y 132 0.02495700 12.010000
133 L21_hL 1 DAPC H19U 133 0.00542600 1.008000
134 L21_hL 1 DAPC H19V 134 0.00542600 1.008000
135 L21_cD 1 DAPC C20Y 135 -0.10930200 12.010000
136 L21_hL 1 DAPC H20U 136 0.02372300 1.008000
137 L21_hL 1 DAPC H20V 137 0.02372300 1.008000
138 L21_hL 1 DAPC H20W 138 0.02372300 1.008000

[ bonds ]
;    ai     aj funct         c0         c1         c2         c3
     44     47     1   0.15350 253634.080000
     41     44     1   0.15350 253634.080000
     38     41     1   0.15350 253634.080000
     35     51     1   0.15080 274721.440000
     32     35     1   0.15350 253634.080000
     29     32     1   0.15350 253634.080000
     27     29     1   0.15080 274721.440000
     25     27     1   0.13240 493460.960000
     22     25     1   0.15080 274721.440000
     20     22     1   0.15080 274721.440000
     18     20     1   0.13240 493460.960000
     15     18     1   0.15080 274721.440000
     13     15     1   0.15080 274721.440000
     11     13     1   0.13240 493460.960000
      8     11     1   0.15080 274721.440000
      6      8     1   0.15080 274721.440000
      4      6     1   0.13240 493460.960000
      1      4     1   0.15080 274721.440000
      1     38     1   0.15350 253634.080000
     87     88     1   0.12140 542246.400000
     87    123     1   0.15080 274721.440000
     86     87     1   0.13430 344175.840000
     71     72     1   0.14990 245684.480000
     71     76     1   0.14990 245684.480000
     71     80     1   0.14990 245684.480000
     68     71     1   0.14990 245684.480000
     65     68     1   0.15350 253634.080000
     64     65     1   0.14390 252295.200000
     63     64     1   0.16100 192464.000000
     63     84     1   0.14800 439320.000000
     63     85     1   0.14800 439320.000000
     62     63     1   0.16100 192464.000000
     59     62     1   0.14390 252295.200000
     57     59     1   0.15350 253634.080000
     57     86     1   0.14390 252295.200000
     54     57     1   0.15350 253634.080000
     53     54     1   0.14390 252295.200000
     51     52     1   0.12140 542246.400000
     51     53     1   0.13430 344175.840000
    132    135     1   0.15350 253634.080000
    129    132     1   0.15350 253634.080000
    126    129     1   0.15350 253634.080000
    120    123     1   0.15350 253634.080000
    117    120     1   0.15350 253634.080000
    115    117     1   0.15080 274721.440000
    113    115     1   0.13240 493460.960000
    110    113     1   0.15080 274721.440000
    108    110     1   0.15080 274721.440000
    106    108     1   0.13240 493460.960000
    103    106     1   0.15080 274721.440000
    101    103     1   0.15080 274721.440000
     99    101     1   0.13240 493460.960000
     96     99     1   0.15080 274721.440000
     94     96     1   0.15080 274721.440000
     92     94     1   0.13240 493460.960000
     89     92     1   0.15080 274721.440000
     89    126     1   0.15350 253634.080000
     47     48     1   0.10920 282252.640000
     47     49     1   0.10920 282252.640000
     47     50     1   0.10920 282252.640000
     44     45     1   0.10920 282252.640000
     44     46     1   0.10920 282252.640000
     41     42     1   0.10920 282252.640000
     41     43     1   0.10920 282252.640000
     38     39     1   0.10920 282252.640000
     38     40     1   0.10920 282252.640000
     35     36     1   0.10920 282252.640000
     35     37     1   0.10920 282252.640000
     32     33     1   0.10920 282252.640000
     32     34     1   0.10920 282252.640000
     29     30     1   0.10920 282252.640000
     29     31     1   0.10920 282252.640000
     27     28     1   0.10870 288110.240000
     25     26     1   0.10870 288110.240000
     22     23     1   0.10920 282252.640000
     22     24     1   0.10920 282252.640000
     20     21     1   0.10870 288110.240000
     18     19     1   0.10870 288110.240000
     15     16     1   0.10920 282252.640000
     15     17     1   0.10920 282252.640000
     13     14     1   0.10870 288110.240000
     11     12     1   0.10870 288110.240000
      8      9     1   0.10920 282252.640000
      8     10     1   0.10920 282252.640000
      6      7     1   0.10870 288110.240000
      4      5     1   0.10870 288110.240000
      1      2     1   0.10920 282252.640000
      1      3     1   0.10920 282252.640000
     80     81     1   0.10910 283424.160000
     80     82     1   0.10910 283424.160000
     80     83     1   0.10910 283424.160000
     76     77     1   0.10910 283424.160000
     76     78     1   0.10910 283424.160000
     76     79     1   0.10910 283424.160000
     72     73     1   0.10910 283424.160000
     72     74     1   0.10910 283424.160000
     72     75     1   0.10910 283424.160000
     68     69     1   0.10910 283424.160000
     68     70     1   0.10910 283424.160000
     65     66     1   0.10930 281081.120000
     65     67     1   0.10930 281081.120000
     59     60     1   0.10930 281081.120000
     59     61     1   0.10930 281081.120000
     57     58     1   0.10930 281081.120000
     54     55     1   0.10930 281081.120000
     54     56     1   0.10930 281081.120000
    135    136     1   0.10920 282252.640000
    135    137     1   0.10920 282252.640000
    135    138     1   0.10920 282252.640000
    132    133     1   0.10920 282252.640000
    132    134     1   0.10920 282252.640000
    129    130     1   0.10920 282252.640000
    129    131     1   0.10920 282252.640000
    126    127     1   0.10920 282252.640000
    126    128     1   0.10920 282252.640000
    123    124     1   0.10920 282252.640000
    123    125     1   0.10920 282252.640000
    120    121     1   0.10920 282252.640000
    120    122     1   0.10920 282252.640000
    117    118     1   0.10920 282252.640000
    117    119     1   0.10920 282252.640000
    115    116     1   0.10870 288110.240000
    113    114     1   0.10870 288110.240000
    110    111     1   0.10920 282252.640000
    110    112     1   0.10920 282252.640000
    108    109     1   0.10870 288110.240000
    106    107     1   0.10870 288110.240000
    103    104     1   0.10920 282252.640000
    103    105     1   0.10920 282252.640000
    101    102     1   0.10870 288110.240000
     99    100     1   0.10870 288110.240000
     96     97     1   0.10920 282252.640000
     96     98     1   0.10920 282252.640000
     94     95     1   0.10870 288110.240000
     92     93     1   0.10870 288110.240000
     89     90     1   0.10920 282252.640000
     89     91     1   0.10920 282252.640000


[ pairs ]
; ai aj funct fudgeQQ qi qj sigma epsilon; source-specific LJ and charge scaling
1 7 2 0.83333333333333 0.0391 0.12961600017561 0.28134581515096 0.057892107742859
1 8 2 0.83333333333333 0.0391 0.058196999829879 0.33996695084507 0.2288647998237
1 42 2 0.83333333333333 0.0391 0.014217999978049 0.30005468824211 0.069194303392389
1 43 2 0.83333333333333 0.0391 0.014217999978049 0.30005468824211 0.069194303392389
1 44 2 0.83333333333333 0.0391 0.024956999994512 0.33996695084507 0.076288266607901
2 5 2 0.83333333333333 0.028847999978049 0.13279299978598 0.24143355271439 0.017502927720476
2 6 2 0.83333333333333 0.028847999978049 -0.22476900007134 0.30005468825729 0.061349482798597
2 39 2 0.83333333333333 0.028847999978049 0.019580999983537 0.26014242576773 0.020919999936173
2 40 2 0.83333333333333 0.028847999978049 0.019580999983537 0.26014242576773 0.020919999936173
2 41 2 0.83333333333333 0.028847999978049 -0.019772000021951 0.30005468824211 0.069194303392389
3 5 2 0.83333333333333 0.028847999978049 0.13279299978598 0.24143355271439 0.017502927720476
3 6 2 0.83333333333333 0.028847999978049 -0.22476900007134 0.30005468825729 0.061349482798597
3 39 2 0.83333333333333 0.028847999978049 0.019580999983537 0.26014242576773 0.020919999936173
3 40 2 0.83333333333333 0.028847999978049 0.019580999983537 0.26014242576773 0.020919999936173
3 41 2 0.83333333333333 0.028847999978049 -0.019772000021951 0.30005468824211 0.069194303392389
4 9 2 0.83333333333333 -0.24414899985183 0.061350000274389 0.30005468825729 0.061349482798597
4 10 2 0.83333333333333 -0.24414899985183 0.061350000274389 0.30005468825729 0.061349482798597
4 11 2 0.83333333333333 -0.24414899985183 -0.22016400015366 0.33996695079448 0.17991200026853
4 39 2 0.83333333333333 -0.24414899985183 0.019580999983537 0.30005468825729 0.061349482798597
4 40 2 0.83333333333333 -0.24414899985183 0.019580999983537 0.30005468825729 0.061349482798597
4 41 2 0.83333333333333 -0.24414899985183 -0.019772000021951 0.33996695087407 0.20291752963184
5 7 2 0.83333333333333 0.13279299978598 0.12961600017561 0.22272467949703 0.014644000015013
5 8 2 0.83333333333333 0.13279299978598 0.058196999829879 0.28134581515096 0.057892107742859
5 38 2 0.83333333333333 0.13279299978598 -0.028397999978049 0.28134581515096 0.057892107742859
6 12 2 0.83333333333333 -0.22476900007134 0.13198600012073 0.28134581517665 0.051328659869652
6 13 2 0.83333333333333 -0.22476900007134 -0.2287040000439 0.33996695079448 0.17991200026853
6 38 2 0.83333333333333 -0.22476900007134 -0.028397999978049 0.33996695087407 0.20291752963184
7 9 2 0.83333333333333 0.12961600017561 0.061350000274389 0.24143355271439 0.017502927720476
7 10 2 0.83333333333333 0.12961600017561 0.061350000274389 0.24143355271439 0.017502927720476
7 11 2 0.83333333333333 0.12961600017561 -0.22016400015366 0.28134581517665 0.051328659869652
8 14 2 0.83333333333333 0.058196999829879 0.13134099976403 0.28134581515096 0.057892107742859
8 15 2 0.83333333333333 0.058196999829879 0.095405999791464 0.33996695084507 0.2288647998237
9 12 2 0.83333333333333 0.061350000274389 0.13198600012073 0.24143355271439 0.017502927720476
9 13 2 0.83333333333333 0.061350000274389 -0.2287040000439 0.30005468825729 0.061349482798597
10 12 2 0.83333333333333 0.061350000274389 0.13198600012073 0.24143355271439 0.017502927720476
10 13 2 0.83333333333333 0.061350000274389 -0.2287040000439 0.30005468825729 0.061349482798597
11 16 2 0.83333333333333 -0.22016400015366 0.05114 0.30005468825729 0.061349482798597
11 17 2 0.83333333333333 -0.22016400015366 0.05114 0.30005468825729 0.061349482798597
11 18 2 0.83333333333333 -0.22016400015366 -0.22869400020854 0.33996695079448 0.17991200026853
12 14 2 0.83333333333333 0.13198600012073 0.13134099976403 0.22272467949703 0.014644000015013
12 15 2 0.83333333333333 0.13198600012073 0.095405999791464 0.28134581515096 0.057892107742859
13 19 2 0.83333333333333 -0.2287040000439 0.132166999775 0.28134581517665 0.051328659869652
13 20 2 0.83333333333333 -0.2287040000439 -0.22852699988476 0.33996695079448 0.17991200026853
14 16 2 0.83333333333333 0.13134099976403 0.05114 0.24143355271439 0.017502927720476
14 17 2 0.83333333333333 0.13134099976403 0.05114 0.24143355271439 0.017502927720476
14 18 2 0.83333333333333 0.13134099976403 -0.22869400020854 0.28134581517665 0.051328659869652
15 21 2 0.83333333333333 0.095405999791464 0.13473499997256 0.28134581515096 0.057892107742859
15 22 2 0.83333333333333 0.095405999791464 0.055783999824391 0.33996695084507 0.2288647998237
16 19 2 0.83333333333333 0.05114 0.132166999775 0.24143355271439 0.017502927720476
16 20 2 0.83333333333333 0.05114 -0.22852699988476 0.30005468825729 0.061349482798597
17 19 2 0.83333333333333 0.05114 0.132166999775 0.24143355271439 0.017502927720476
17 20 2 0.83333333333333 0.05114 -0.22852699988476 0.30005468825729 0.061349482798597
18 23 2 0.83333333333333 -0.22869400020854 0.062774999862805 0.30005468825729 0.061349482798597
18 24 2 0.83333333333333 -0.22869400020854 0.062774999862805 0.30005468825729 0.061349482798597
18 25 2 0.83333333333333 -0.22869400020854 -0.20678600012073 0.33996695079448 0.17991200026853
19 21 2 0.83333333333333 0.132166999775 0.13473499997256 0.22272467949703 0.014644000015013
19 22 2 0.83333333333333 0.132166999775 0.055783999824391 0.28134581515096 0.057892107742859
20 26 2 0.83333333333333 -0.22852699988476 0.12985799981342 0.28134581517665 0.051328659869652
20 27 2 0.83333333333333 -0.22852699988476 -0.26789000016463 0.33996695079448 0.17991200026853
21 23 2 0.83333333333333 0.13473499997256 0.062774999862805 0.24143355271439 0.017502927720476
21 24 2 0.83333333333333 0.13473499997256 0.062774999862805 0.24143355271439 0.017502927720476
21 25 2 0.83333333333333 0.13473499997256 -0.20678600012073 0.28134581517665 0.051328659869652
22 28 2 0.83333333333333 0.055783999824391 0.14357700015915 0.28134581515096 0.057892107742859
22 29 2 0.83333333333333 0.055783999824391 0.031382000021951 0.33996695084507 0.2288647998237
23 26 2 0.83333333333333 0.062774999862805 0.12985799981342 0.24143355271439 0.017502927720476
23 27 2 0.83333333333333 0.062774999862805 -0.26789000016463 0.30005468825729 0.061349482798597
24 26 2 0.83333333333333 0.062774999862805 0.12985799981342 0.24143355271439 0.017502927720476
24 27 2 0.83333333333333 0.062774999862805 -0.26789000016463 0.30005468825729 0.061349482798597
25 30 2 0.83333333333333 -0.20678600012073 0.038707999978049 0.30005468825729 0.061349482798597
25 31 2 0.83333333333333 -0.20678600012073 0.038707999978049 0.30005468825729 0.061349482798597
25 32 2 0.83333333333333 -0.20678600012073 0.025626000010976 0.33996695087407 0.20291752963184
26 28 2 0.83333333333333 0.12985799981342 0.14357700015915 0.22272467949703 0.014644000015013
26 29 2 0.83333333333333 0.12985799981342 0.031382000021951 0.28134581515096 0.057892107742859
27 33 2 0.83333333333333 -0.26789000016463 0.025116999994512 0.30005468825729 0.061349482798597
27 34 2 0.83333333333333 -0.26789000016463 0.025116999994512 0.30005468825729 0.061349482798597
27 35 2 0.83333333333333 -0.26789000016463 -0.12393499997256 0.33996695087407 0.20291752963184
28 30 2 0.83333333333333 0.14357700015915 0.038707999978049 0.24143355271439 0.017502927720476
28 31 2 0.83333333333333 0.14357700015915 0.038707999978049 0.24143355271439 0.017502927720476
28 32 2 0.83333333333333 0.14357700015915 0.025626000010976 0.28134581515096 0.057892107742859
29 36 2 0.83333333333333 0.031382000021951 0.024535000027439 0.30005468824211 0.069194303392389
29 37 2 0.83333333333333 0.031382000021951 0.024535000027439 0.30005468824211 0.069194303392389
29 51 2 0.83333333333333 0.031382000021951 0.9104030007189 0.33996695087407 0.20291752963184
30 33 2 0.83333333333333 0.038707999978049 0.025116999994512 0.26014242576773 0.020919999936173
30 34 2 0.83333333333333 0.038707999978049 0.025116999994512 0.26014242576773 0.020919999936173
30 35 2 0.83333333333333 0.038707999978049 -0.12393499997256 0.30005468824211 0.069194303392389
31 33 2 0.83333333333333 0.038707999978049 0.025116999994512 0.26014242576773 0.020919999936173
31 34 2 0.83333333333333 0.038707999978049 0.025116999994512 0.26014242576773 0.020919999936173
31 35 2 0.83333333333333 0.038707999978049 -0.12393499997256 0.30005468824211 0.069194303392389
32 52 2 0.83333333333333 0.025626000010976 -0.67156599880366 0.31797957047595 0.31708813257529
32 53 2 0.83333333333333 0.025626000010976 -0.57548899974207 0.31998409262799 0.28529542121767
33 36 2 0.83333333333333 0.025116999994512 0.024535000027439 0.26014242576773 0.020919999936173
33 37 2 0.83333333333333 0.025116999994512 0.024535000027439 0.26014242576773 0.020919999936173
33 51 2 0.83333333333333 0.025116999994512 0.9104030007189 0.30005468825729 0.061349482798597
34 36 2 0.83333333333333 0.025116999994512 0.024535000027439 0.26014242576773 0.020919999936173
34 37 2 0.83333333333333 0.025116999994512 0.024535000027439 0.26014242576773 0.020919999936173
34 51 2 0.83333333333333 0.025116999994512 0.9104030007189 0.30005468825729 0.061349482798597
35 54 2 0.83333333333333 -0.12393499997256 0.19693900001646 0.33996695084507 0.2288647998237
36 52 2 0.83333333333333 0.024535000027439 -0.67156599880366 0.27806730790153 0.095867483596702
36 53 2 0.83333333333333 0.024535000027439 -0.57548899974207 0.2800718300513 0.086255369632554
37 52 2 0.83333333333333 0.024535000027439 -0.67156599880366 0.27806730790153 0.095867483596702
37 53 2 0.83333333333333 0.024535000027439 -0.57548899974207 0.2800718300513 0.086255369632554
38 45 2 0.83333333333333 -0.028397999978049 0.005426 0.30005468824211 0.069194303392389
38 46 2 0.83333333333333 -0.028397999978049 0.005426 0.30005468824211 0.069194303392389
38 47 2 0.83333333333333 -0.028397999978049 -0.10930199974756 0.33996695084507 0.076288266607901
39 42 2 0.83333333333333 0.019580999983537 0.014217999978049 0.26014242576773 0.020919999936173
39 43 2 0.83333333333333 0.019580999983537 0.014217999978049 0.26014242576773 0.020919999936173
39 44 2 0.83333333333333 0.019580999983537 0.024956999994512 0.30005468824211 0.069194303392389
40 42 2 0.83333333333333 0.019580999983537 0.014217999978049 0.26014242576773 0.020919999936173
40 43 2 0.83333333333333 0.019580999983537 0.014217999978049 0.26014242576773 0.020919999936173
40 44 2 0.83333333333333 0.019580999983537 0.024956999994512 0.30005468824211 0.069194303392389
41 48 2 0.83333333333333 -0.019772000021951 0.023723000005488 0.30005468824211 0.069194303392389
41 49 2 0.83333333333333 -0.019772000021951 0.023723000005488 0.30005468824211 0.069194303392389
41 50 2 0.83333333333333 -0.019772000021951 0.023723000005488 0.30005468824211 0.069194303392389
42 45 2 0.83333333333333 0.014217999978049 0.005426 0.26014242576773 0.020919999936173
42 46 2 0.83333333333333 0.014217999978049 0.005426 0.26014242576773 0.020919999936173
42 47 2 0.83333333333333 0.014217999978049 -0.10930199974756 0.30005468824211 0.069194303392389
43 45 2 0.83333333333333 0.014217999978049 0.005426 0.26014242576773 0.020919999936173
43 46 2 0.83333333333333 0.014217999978049 0.005426 0.26014242576773 0.020919999936173
43 47 2 0.83333333333333 0.014217999978049 -0.10930199974756 0.30005468824211 0.069194303392389
45 48 2 0.83333333333333 0.005426 0.023723000005488 0.26014242576773 0.020919999936173
45 49 2 0.83333333333333 0.005426 0.023723000005488 0.26014242576773 0.020919999936173
45 50 2 0.83333333333333 0.005426 0.023723000005488 0.26014242576773 0.020919999936173
46 48 2 0.83333333333333 0.005426 0.023723000005488 0.26014242576773 0.020919999936173
46 49 2 0.83333333333333 0.005426 0.023723000005488 0.26014242576773 0.020919999936173
46 50 2 0.83333333333333 0.005426 0.023723000005488 0.26014242576773 0.020919999936173
51 55 2 0.83333333333333 0.9104030007189 0.070469000071341 0.29355112761526 0.076870681673027
51 56 2 0.83333333333333 0.9104030007189 0.070469000071341 0.29355112761526 0.076870681673027
51 57 2 0.83333333333333 0.9104030007189 0.28124200018658 0.33996695087407 0.20291752963184
52 54 2 0.83333333333333 -0.67156599880366 0.19693900001646 0.31797957047595 0.31708813257529
53 58 2 0.83333333333333 -0.57548899974207 0.063252999895732 0.27356826939641 0.10807766839674
53 59 2 0.83333333333333 -0.57548899974207 0.017459000016463 0.31998409262799 0.28529542121767
53 86 2 0.83333333333333 -0.57548899974207 -0.55294799778294 0.30000123432245 0.35564000022068
54 60 2 0.83333333333333 0.19693900001646 0.095591000038414 0.29355112776543 0.086700213146672
54 61 2 0.83333333333333 0.19693900001646 0.095591000038414 0.29355112776543 0.086700213146672
54 62 2 0.83333333333333 0.19693900001646 -0.50947999978049 0.31998409262799 0.28529542121767
54 87 2 0.83333333333333 0.19693900001646 0.89761300165182 0.33996695087407 0.20291752963184
55 58 2 0.83333333333333 0.070469000071341 0.063252999895732 0.24713530426422 0.032844400205981
55 59 2 0.83333333333333 0.070469000071341 0.017459000016463 0.29355112776543 0.086700213146672
55 86 2 0.83333333333333 0.070469000071341 -0.55294799778294 0.27356826939641 0.10807766839674
56 58 2 0.83333333333333 0.070469000071341 0.063252999895732 0.24713530426422 0.032844400205981
56 59 2 0.83333333333333 0.070469000071341 0.017459000016463 0.29355112776543 0.086700213146672
56 86 2 0.83333333333333 0.070469000071341 -0.55294799778294 0.27356826939641 0.10807766839674
57 63 2 0.83333333333333 0.28124200018658 1.3397210011908 0.35707220617836 0.30944633210394
57 88 2 0.83333333333333 0.28124200018658 -0.67375499799696 0.31797957047595 0.31708813257529
57 123 2 0.83333333333333 0.28124200018658 -0.12393499997256 0.33996695084507 0.2288647998237
58 60 2 0.83333333333333 0.063252999895732 0.095591000038414 0.24713530426422 0.032844400205981
58 61 2 0.83333333333333 0.063252999895732 0.095591000038414 0.24713530426422 0.032844400205981
58 62 2 0.83333333333333 0.063252999895732 -0.50947999978049 0.27356826939641 0.10807766839674
58 87 2 0.83333333333333 0.063252999895732 0.89761300165182 0.29355112761526 0.076870681673027
59 64 2 0.83333333333333 0.017459000016463 -0.50817599973659 0.31998409262799 0.28529542121767
59 84 2 0.83333333333333 0.017459000016463 -0.87581199958293 0.31797957047595 0.31708813257529
59 85 2 0.83333333333333 0.017459000016463 -0.87581199958293 0.31797957047595 0.31708813257529
59 87 2 0.83333333333333 0.017459000016463 0.89761300165182 0.33996695087407 0.20291752963184
60 63 2 0.83333333333333 0.095591000038414 1.3397210011908 0.31065638299277 0.11722669057481
60 86 2 0.83333333333333 0.095591000038414 -0.55294799778294 0.27356826939641 0.10807766839674
61 63 2 0.83333333333333 0.095591000038414 1.3397210011908 0.31065638299277 0.11722669057481
61 86 2 0.83333333333333 0.095591000038414 -0.55294799778294 0.27356826939641 0.10807766839674
62 65 2 0.83333333333333 -0.50947999978049 0.16680099987378 0.31998409262799 0.28529542121767
62 86 2 0.83333333333333 -0.50947999978049 -0.55294799778294 0.30000123432245 0.35564000022068
63 66 2 0.83333333333333 1.3397210011908 0.07853400009878 0.31065638299277 0.11722669057481
63 67 2 0.83333333333333 1.3397210011908 0.07853400009878 0.31065638299277 0.11722669057481
63 68 2 0.83333333333333 1.3397210011908 -0.17082400026341 0.35707220617836 0.30944633210394
64 69 2 0.83333333333333 -0.50817599973659 0.13641499975305 0.24799947608237 0.10807766872372
64 70 2 0.83333333333333 -0.50817599973659 0.13641499975305 0.24799947608237 0.10807766872372
64 71 2 0.83333333333333 -0.50817599973659 0.24526199985732 0.31250054330942 0.35564000053052
65 72 2 0.83333333333333 0.16680099987378 -0.33897300011524 0.33996695084507 0.2288647998237
65 76 2 0.83333333333333 0.16680099987378 -0.33897300011524 0.33996695084507 0.2288647998237
65 80 2 0.83333333333333 0.16680099987378 -0.33897300011524 0.33996695084507 0.2288647998237
65 84 2 0.83333333333333 0.16680099987378 -0.87581199958293 0.31797957047595 0.31708813257529
65 85 2 0.83333333333333 0.16680099987378 -0.87581199958293 0.31797957047595 0.31708813257529
66 69 2 0.83333333333333 0.07853400009878 0.13641499975305 0.22156651118302 0.032844400019638
66 70 2 0.83333333333333 0.07853400009878 0.13641499975305 0.22156651118302 0.032844400019638
66 71 2 0.83333333333333 0.07853400009878 0.24526199985732 0.2860675785499 0.10807766765337
67 69 2 0.83333333333333 0.07853400009878 0.13641499975305 0.22156651118302 0.032844400019638
67 70 2 0.83333333333333 0.07853400009878 0.13641499975305 0.22156651118302 0.032844400019638
67 71 2 0.83333333333333 0.07853400009878 0.24526199985732 0.2860675785499 0.10807766765337
68 73 2 0.83333333333333 -0.17082400026341 0.17223000005488 0.26798233433913 0.086700213743521
68 74 2 0.83333333333333 -0.17082400026341 0.17223000005488 0.26798233433913 0.086700213743521
68 75 2 0.83333333333333 -0.17082400026341 0.17223000005488 0.26798233433913 0.086700213743521
68 77 2 0.83333333333333 -0.17082400026341 0.17223000005488 0.26798233433913 0.086700213743521
68 78 2 0.83333333333333 -0.17082400026341 0.17223000005488 0.26798233433913 0.086700213743521
68 79 2 0.83333333333333 -0.17082400026341 0.17223000005488 0.26798233433913 0.086700213743521
68 81 2 0.83333333333333 -0.17082400026341 0.17223000005488 0.26798233433913 0.086700213743521
68 82 2 0.83333333333333 -0.17082400026341 0.17223000005488 0.26798233433913 0.086700213743521
68 83 2 0.83333333333333 -0.17082400026341 0.17223000005488 0.26798233433913 0.086700213743521
69 72 2 0.83333333333333 0.13641499975305 -0.33897300011524 0.26798233433913 0.086700213743521
69 76 2 0.83333333333333 0.13641499975305 -0.33897300011524 0.26798233433913 0.086700213743521
69 80 2 0.83333333333333 0.13641499975305 -0.33897300011524 0.26798233433913 0.086700213743521
70 72 2 0.83333333333333 0.13641499975305 -0.33897300011524 0.26798233433913 0.086700213743521
70 76 2 0.83333333333333 0.13641499975305 -0.33897300011524 0.26798233433913 0.086700213743521
70 80 2 0.83333333333333 0.13641499975305 -0.33897300011524 0.26798233433913 0.086700213743521
72 77 2 0.83333333333333 -0.33897300011524 0.17223000005488 0.26798233433913 0.086700213743521
72 78 2 0.83333333333333 -0.33897300011524 0.17223000005488 0.26798233433913 0.086700213743521
72 79 2 0.83333333333333 -0.33897300011524 0.17223000005488 0.26798233433913 0.086700213743521
72 81 2 0.83333333333333 -0.33897300011524 0.17223000005488 0.26798233433913 0.086700213743521
72 82 2 0.83333333333333 -0.33897300011524 0.17223000005488 0.26798233433913 0.086700213743521
72 83 2 0.83333333333333 -0.33897300011524 0.17223000005488 0.26798233433913 0.086700213743521
73 76 2 0.83333333333333 0.17223000005488 -0.33897300011524 0.26798233433913 0.086700213743521
73 80 2 0.83333333333333 0.17223000005488 -0.33897300011524 0.26798233433913 0.086700213743521
74 76 2 0.83333333333333 0.17223000005488 -0.33897300011524 0.26798233433913 0.086700213743521
74 80 2 0.83333333333333 0.17223000005488 -0.33897300011524 0.26798233433913 0.086700213743521
75 76 2 0.83333333333333 0.17223000005488 -0.33897300011524 0.26798233433913 0.086700213743521
75 80 2 0.83333333333333 0.17223000005488 -0.33897300011524 0.26798233433913 0.086700213743521
76 81 2 0.83333333333333 -0.33897300011524 0.17223000005488 0.26798233433913 0.086700213743521
76 82 2 0.83333333333333 -0.33897300011524 0.17223000005488 0.26798233433913 0.086700213743521
76 83 2 0.83333333333333 -0.33897300011524 0.17223000005488 0.26798233433913 0.086700213743521
77 80 2 0.83333333333333 0.17223000005488 -0.33897300011524 0.26798233433913 0.086700213743521
78 80 2 0.83333333333333 0.17223000005488 -0.33897300011524 0.26798233433913 0.086700213743521
79 80 2 0.83333333333333 0.17223000005488 -0.33897300011524 0.26798233433913 0.086700213743521
86 120 2 0.83333333333333 -0.55294799778294 0.025626000010976 0.31998409262799 0.28529542121767
86 124 2 0.83333333333333 -0.55294799778294 0.024535000027439 0.2800718300513 0.086255369632554
86 125 2 0.83333333333333 -0.55294799778294 0.024535000027439 0.2800718300513 0.086255369632554
87 117 2 0.83333333333333 0.89761300165182 0.031382000021951 0.33996695087407 0.20291752963184
87 121 2 0.83333333333333 0.89761300165182 0.025116999994512 0.30005468825729 0.061349482798597
87 122 2 0.83333333333333 0.89761300165182 0.025116999994512 0.30005468825729 0.061349482798597
88 120 2 0.83333333333333 -0.67375499799696 0.025626000010976 0.31797957047595 0.31708813257529
88 124 2 0.83333333333333 -0.67375499799696 0.024535000027439 0.27806730790153 0.095867483596702
88 125 2 0.83333333333333 -0.67375499799696 0.024535000027439 0.27806730790153 0.095867483596702
89 95 2 0.83333333333333 0.0391 0.12961600017561 0.28134581515096 0.057892107742859
89 96 2 0.83333333333333 0.0391 0.058196999829879 0.33996695084507 0.2288647998237
89 130 2 0.83333333333333 0.0391 0.014217999978049 0.30005468824211 0.069194303392389
89 131 2 0.83333333333333 0.0391 0.014217999978049 0.30005468824211 0.069194303392389
89 132 2 0.83333333333333 0.0391 0.024956999994512 0.33996695084507 0.076288266607901
90 93 2 0.83333333333333 0.028847999978049 0.13279299978598 0.24143355271439 0.017502927720476
90 94 2 0.83333333333333 0.028847999978049 -0.22476900007134 0.30005468825729 0.061349482798597
90 127 2 0.83333333333333 0.028847999978049 0.019580999983537 0.26014242576773 0.020919999936173
90 128 2 0.83333333333333 0.028847999978049 0.019580999983537 0.26014242576773 0.020919999936173
90 129 2 0.83333333333333 0.028847999978049 -0.019772000021951 0.30005468824211 0.069194303392389
91 93 2 0.83333333333333 0.028847999978049 0.13279299978598 0.24143355271439 0.017502927720476
91 94 2 0.83333333333333 0.028847999978049 -0.22476900007134 0.30005468825729 0.061349482798597
91 127 2 0.83333333333333 0.028847999978049 0.019580999983537 0.26014242576773 0.020919999936173
91 128 2 0.83333333333333 0.028847999978049 0.019580999983537 0.26014242576773 0.020919999936173
91 129 2 0.83333333333333 0.028847999978049 -0.019772000021951 0.30005468824211 0.069194303392389
92 97 2 0.83333333333333 -0.24414899985183 0.061350000274389 0.30005468825729 0.061349482798597
92 98 2 0.83333333333333 -0.24414899985183 0.061350000274389 0.30005468825729 0.061349482798597
92 99 2 0.83333333333333 -0.24414899985183 -0.22016400015366 0.33996695079448 0.17991200026853
92 127 2 0.83333333333333 -0.24414899985183 0.019580999983537 0.30005468825729 0.061349482798597
92 128 2 0.83333333333333 -0.24414899985183 0.019580999983537 0.30005468825729 0.061349482798597
92 129 2 0.83333333333333 -0.24414899985183 -0.019772000021951 0.33996695087407 0.20291752963184
93 95 2 0.83333333333333 0.13279299978598 0.12961600017561 0.22272467949703 0.014644000015013
93 96 2 0.83333333333333 0.13279299978598 0.058196999829879 0.28134581515096 0.057892107742859
93 126 2 0.83333333333333 0.13279299978598 -0.028397999978049 0.28134581515096 0.057892107742859
94 100 2 0.83333333333333 -0.22476900007134 0.13198600012073 0.28134581517665 0.051328659869652
94 101 2 0.83333333333333 -0.22476900007134 -0.2287040000439 0.33996695079448 0.17991200026853
94 126 2 0.83333333333333 -0.22476900007134 -0.028397999978049 0.33996695087407 0.20291752963184
95 97 2 0.83333333333333 0.12961600017561 0.061350000274389 0.24143355271439 0.017502927720476
95 98 2 0.83333333333333 0.12961600017561 0.061350000274389 0.24143355271439 0.017502927720476
95 99 2 0.83333333333333 0.12961600017561 -0.22016400015366 0.28134581517665 0.051328659869652
96 102 2 0.83333333333333 0.058196999829879 0.13134099976403 0.28134581515096 0.057892107742859
96 103 2 0.83333333333333 0.058196999829879 0.095405999791464 0.33996695084507 0.2288647998237
97 100 2 0.83333333333333 0.061350000274389 0.13198600012073 0.24143355271439 0.017502927720476
97 101 2 0.83333333333333 0.061350000274389 -0.2287040000439 0.30005468825729 0.061349482798597
98 100 2 0.83333333333333 0.061350000274389 0.13198600012073 0.24143355271439 0.017502927720476
98 101 2 0.83333333333333 0.061350000274389 -0.2287040000439 0.30005468825729 0.061349482798597
99 104 2 0.83333333333333 -0.22016400015366 0.05114 0.30005468825729 0.061349482798597
99 105 2 0.83333333333333 -0.22016400015366 0.05114 0.30005468825729 0.061349482798597
99 106 2 0.83333333333333 -0.22016400015366 -0.22869400020854 0.33996695079448 0.17991200026853
100 102 2 0.83333333333333 0.13198600012073 0.13134099976403 0.22272467949703 0.014644000015013
100 103 2 0.83333333333333 0.13198600012073 0.095405999791464 0.28134581515096 0.057892107742859
101 107 2 0.83333333333333 -0.2287040000439 0.132166999775 0.28134581517665 0.051328659869652
101 108 2 0.83333333333333 -0.2287040000439 -0.22852699988476 0.33996695079448 0.17991200026853
102 104 2 0.83333333333333 0.13134099976403 0.05114 0.24143355271439 0.017502927720476
102 105 2 0.83333333333333 0.13134099976403 0.05114 0.24143355271439 0.017502927720476
102 106 2 0.83333333333333 0.13134099976403 -0.22869400020854 0.28134581517665 0.051328659869652
103 109 2 0.83333333333333 0.095405999791464 0.13473499997256 0.28134581515096 0.057892107742859
103 110 2 0.83333333333333 0.095405999791464 0.055783999824391 0.33996695084507 0.2288647998237
104 107 2 0.83333333333333 0.05114 0.132166999775 0.24143355271439 0.017502927720476
104 108 2 0.83333333333333 0.05114 -0.22852699988476 0.30005468825729 0.061349482798597
105 107 2 0.83333333333333 0.05114 0.132166999775 0.24143355271439 0.017502927720476
105 108 2 0.83333333333333 0.05114 -0.22852699988476 0.30005468825729 0.061349482798597
106 111 2 0.83333333333333 -0.22869400020854 0.062774999862805 0.30005468825729 0.061349482798597
106 112 2 0.83333333333333 -0.22869400020854 0.062774999862805 0.30005468825729 0.061349482798597
106 113 2 0.83333333333333 -0.22869400020854 -0.20678600012073 0.33996695079448 0.17991200026853
107 109 2 0.83333333333333 0.132166999775 0.13473499997256 0.22272467949703 0.014644000015013
107 110 2 0.83333333333333 0.132166999775 0.055783999824391 0.28134581515096 0.057892107742859
108 114 2 0.83333333333333 -0.22852699988476 0.12985799981342 0.28134581517665 0.051328659869652
108 115 2 0.83333333333333 -0.22852699988476 -0.26789000016463 0.33996695079448 0.17991200026853
109 111 2 0.83333333333333 0.13473499997256 0.062774999862805 0.24143355271439 0.017502927720476
109 112 2 0.83333333333333 0.13473499997256 0.062774999862805 0.24143355271439 0.017502927720476
109 113 2 0.83333333333333 0.13473499997256 -0.20678600012073 0.28134581517665 0.051328659869652
110 116 2 0.83333333333333 0.055783999824391 0.14357700015915 0.28134581515096 0.057892107742859
110 117 2 0.83333333333333 0.055783999824391 0.031382000021951 0.33996695084507 0.2288647998237
111 114 2 0.83333333333333 0.062774999862805 0.12985799981342 0.24143355271439 0.017502927720476
111 115 2 0.83333333333333 0.062774999862805 -0.26789000016463 0.30005468825729 0.061349482798597
112 114 2 0.83333333333333 0.062774999862805 0.12985799981342 0.24143355271439 0.017502927720476
112 115 2 0.83333333333333 0.062774999862805 -0.26789000016463 0.30005468825729 0.061349482798597
113 118 2 0.83333333333333 -0.20678600012073 0.038707999978049 0.30005468825729 0.061349482798597
113 119 2 0.83333333333333 -0.20678600012073 0.038707999978049 0.30005468825729 0.061349482798597
113 120 2 0.83333333333333 -0.20678600012073 0.025626000010976 0.33996695087407 0.20291752963184
114 116 2 0.83333333333333 0.12985799981342 0.14357700015915 0.22272467949703 0.014644000015013
114 117 2 0.83333333333333 0.12985799981342 0.031382000021951 0.28134581515096 0.057892107742859
115 121 2 0.83333333333333 -0.26789000016463 0.025116999994512 0.30005468825729 0.061349482798597
115 122 2 0.83333333333333 -0.26789000016463 0.025116999994512 0.30005468825729 0.061349482798597
115 123 2 0.83333333333333 -0.26789000016463 -0.12393499997256 0.33996695087407 0.20291752963184
116 118 2 0.83333333333333 0.14357700015915 0.038707999978049 0.24143355271439 0.017502927720476
116 119 2 0.83333333333333 0.14357700015915 0.038707999978049 0.24143355271439 0.017502927720476
116 120 2 0.83333333333333 0.14357700015915 0.025626000010976 0.28134581515096 0.057892107742859
117 124 2 0.83333333333333 0.031382000021951 0.024535000027439 0.30005468824211 0.069194303392389
117 125 2 0.83333333333333 0.031382000021951 0.024535000027439 0.30005468824211 0.069194303392389
118 121 2 0.83333333333333 0.038707999978049 0.025116999994512 0.26014242576773 0.020919999936173
118 122 2 0.83333333333333 0.038707999978049 0.025116999994512 0.26014242576773 0.020919999936173
118 123 2 0.83333333333333 0.038707999978049 -0.12393499997256 0.30005468824211 0.069194303392389
119 121 2 0.83333333333333 0.038707999978049 0.025116999994512 0.26014242576773 0.020919999936173
119 122 2 0.83333333333333 0.038707999978049 0.025116999994512 0.26014242576773 0.020919999936173
119 123 2 0.83333333333333 0.038707999978049 -0.12393499997256 0.30005468824211 0.069194303392389
121 124 2 0.83333333333333 0.025116999994512 0.024535000027439 0.26014242576773 0.020919999936173
121 125 2 0.83333333333333 0.025116999994512 0.024535000027439 0.26014242576773 0.020919999936173
122 124 2 0.83333333333333 0.025116999994512 0.024535000027439 0.26014242576773 0.020919999936173
122 125 2 0.83333333333333 0.025116999994512 0.024535000027439 0.26014242576773 0.020919999936173
126 133 2 0.83333333333333 -0.028397999978049 0.005426 0.30005468824211 0.069194303392389
126 134 2 0.83333333333333 -0.028397999978049 0.005426 0.30005468824211 0.069194303392389
126 135 2 0.83333333333333 -0.028397999978049 -0.10930199974756 0.33996695084507 0.076288266607901
127 130 2 0.83333333333333 0.019580999983537 0.014217999978049 0.26014242576773 0.020919999936173
127 131 2 0.83333333333333 0.019580999983537 0.014217999978049 0.26014242576773 0.020919999936173
127 132 2 0.83333333333333 0.019580999983537 0.024956999994512 0.30005468824211 0.069194303392389
128 130 2 0.83333333333333 0.019580999983537 0.014217999978049 0.26014242576773 0.020919999936173
128 131 2 0.83333333333333 0.019580999983537 0.014217999978049 0.26014242576773 0.020919999936173
128 132 2 0.83333333333333 0.019580999983537 0.024956999994512 0.30005468824211 0.069194303392389
129 136 2 0.83333333333333 -0.019772000021951 0.023723000005488 0.30005468824211 0.069194303392389
129 137 2 0.83333333333333 -0.019772000021951 0.023723000005488 0.30005468824211 0.069194303392389
129 138 2 0.83333333333333 -0.019772000021951 0.023723000005488 0.30005468824211 0.069194303392389
130 133 2 0.83333333333333 0.014217999978049 0.005426 0.26014242576773 0.020919999936173
130 134 2 0.83333333333333 0.014217999978049 0.005426 0.26014242576773 0.020919999936173
130 135 2 0.83333333333333 0.014217999978049 -0.10930199974756 0.30005468824211 0.069194303392389
131 133 2 0.83333333333333 0.014217999978049 0.005426 0.26014242576773 0.020919999936173
131 134 2 0.83333333333333 0.014217999978049 0.005426 0.26014242576773 0.020919999936173
131 135 2 0.83333333333333 0.014217999978049 -0.10930199974756 0.30005468824211 0.069194303392389
133 136 2 0.83333333333333 0.005426 0.023723000005488 0.26014242576773 0.020919999936173
133 137 2 0.83333333333333 0.005426 0.023723000005488 0.26014242576773 0.020919999936173
133 138 2 0.83333333333333 0.005426 0.023723000005488 0.26014242576773 0.020919999936173
134 136 2 0.83333333333333 0.005426 0.023723000005488 0.26014242576773 0.020919999936173
134 137 2 0.83333333333333 0.005426 0.023723000005488 0.26014242576773 0.020919999936173
134 138 2 0.83333333333333 0.005426 0.023723000005488 0.26014242576773 0.020919999936173

[ angles ]
;    ai     aj     ak funct         c0         c1         c2         c3
     41     44     47     1   112.0500483 394.969600
     38     41     44     1   112.0500483 394.969600
     35     51     52     1   123.1100526 569.275040
     35     51     53     1   111.9600481 579.567680
     32     35     51     1   110.5300474 533.794720
     29     32     35     1   112.0500483 394.969600
     27     29     32     1   111.4400476 531.619040
     25     27     29     1   123.4200531 538.313440
     22     25     27     1   123.4200531 538.313440
     20     22     25     1   112.0800478 534.966240
     18     20     22     1   123.4200531 538.313440
     15     18     20     1   123.4200531 538.313440
     13     15     18     1   112.0800478 534.966240
     11     13     15     1   123.4200531 538.313440
      8     11     13     1   123.4200531 538.313440
      6      8     11     1   112.0800478 534.966240
      4      1     38     1   111.4400476 531.619040
      4      6      8     1   123.4200531 538.313440
      1      4      6     1   123.4200531 538.313440
      1     38     41     1   112.0500483 394.969600
     88     87    123     1   123.1100526 569.275040
     87    123    120     1   110.5300474 533.794720
     86     87     88     1   123.3300529 635.382240
     86     87    123     1   111.9600481 579.567680
     84     63     85     1   119.9000514 1171.520000
     76     71     80     1   110.6400473 525.845120
     72     71     76     1   110.6400473 525.845120
     72     71     80     1   110.6400473 525.845120
     68     71     72     1   110.6400473 525.845120
     68     71     76     1   110.6400473 525.845120
     68     71     80     1   110.6400473 525.845120
     65     68     71     1   114.3200492 539.317600
     64     63     84     1   108.2300464 836.800000
     64     63     85     1   108.2300464 836.800000
     64     65     68     1   108.4200467 567.183040
     63     64     65     1   120.5000516 836.800000
     62     63     64     1   102.6000440 753.120000
     62     63     84     1   108.2300464 836.800000
     62     63     85     1   108.2300464 836.800000
     59     57     86     1   108.4200467 567.183040
     59     62     63     1   120.5000516 836.800000
     57     59     62     1   108.4200467 567.183040
     57     86     87     1   115.1400492 532.455840
     54     57     59     1   110.6300475 528.941280
     54     57     86     1   108.4200467 567.183040
     53     54     57     1   108.4200467 567.183040
     52     51     53     1   123.3300529 635.382240
     51     53     54     1   115.1400492 532.455840
    129    132    135     1   112.0500483 394.969600
    126    129    132     1   112.0500483 394.969600
    117    120    123     1   112.0500483 394.969600
    115    117    120     1   111.4400476 531.619040
    113    115    117     1   123.4200531 538.313440
    110    113    115     1   123.4200531 538.313440
    108    110    113     1   112.0800478 534.966240
    106    108    110     1   123.4200531 538.313440
    103    106    108     1   123.4200531 538.313440
    101    103    106     1   112.0800478 534.966240
     99    101    103     1   123.4200531 538.313440
     96     99    101     1   123.4200531 538.313440
     94     96     99     1   112.0800478 534.966240
     92     89    126     1   111.4400476 531.619040
     92     94     96     1   123.4200531 538.313440
     89     92     94     1   123.4200531 538.313440
     89    126    129     1   112.0500483 394.969600
     49     47     50     1   108.3500467 329.950240
     48     47     49     1   108.3500467 329.950240
     48     47     50     1   108.3500467 329.950240
     46     44     47     1   110.0500475 388.024160
     45     44     46     1   108.3500467 329.950240
     45     44     47     1   110.0500475 388.024160
     44     47     48     1   110.0500475 388.024160
     44     47     49     1   110.0500475 388.024160
     44     47     50     1   110.0500475 388.024160
     43     41     44     1   110.0500475 388.024160
     42     41     43     1   108.3500467 329.950240
     42     41     44     1   110.0500475 388.024160
     41     44     45     1   110.0500475 388.024160
     41     44     46     1   110.0500475 388.024160
     40     38     41     1   110.0500475 388.024160
     39     38     40     1   108.3500467 329.950240
     39     38     41     1   110.0500475 388.024160
     38     41     42     1   110.0500475 388.024160
     38     41     43     1   110.0500475 388.024160
     37     35     51     1   109.6800468 394.969600
     36     35     37     1   108.3500467 329.950240
     36     35     51     1   109.6800468 394.969600
     34     32     35     1   110.0500475 388.024160
     33     32     34     1   108.3500467 329.950240
     33     32     35     1   110.0500475 388.024160
     32     35     36     1   110.0500475 388.024160
     32     35     37     1   110.0500475 388.024160
     31     29     32     1   110.0500475 388.024160
     30     29     31     1   108.3500467 329.950240
     30     29     32     1   110.0500475 388.024160
     29     32     33     1   110.0500475 388.024160
     29     32     34     1   110.0500475 388.024160
     28     27     29     1   117.3000503 382.082880
     27     29     30     1   110.4900475 393.547040
     27     29     31     1   110.4900475 393.547040
     26     25     27     1   120.9400517 418.734720
     25     27     28     1   120.9400517 418.734720
     24     22     25     1   110.4900475 393.547040
     23     22     24     1   108.3500467 329.950240
     23     22     25     1   110.4900475 393.547040
     22     25     26     1   117.3000503 382.082880
     21     20     22     1   117.3000503 382.082880
     20     22     23     1   110.4900475 393.547040
     20     22     24     1   110.4900475 393.547040
     19     18     20     1   120.9400517 418.734720
     18     20     21     1   120.9400517 418.734720
     17     15     18     1   110.4900475 393.547040
     16     15     17     1   108.3500467 329.950240
     16     15     18     1   110.4900475 393.547040
     15     18     19     1   117.3000503 382.082880
     14     13     15     1   117.3000503 382.082880
     13     15     16     1   110.4900475 393.547040
     13     15     17     1   110.4900475 393.547040
     12     11     13     1   120.9400517 418.734720
     11     13     14     1   120.9400517 418.734720
     10      8     11     1   110.4900475 393.547040
      9      8     10     1   108.3500467 329.950240
      9      8     11     1   110.4900475 393.547040
      8     11     12     1   117.3000503 382.082880
      7      6      8     1   117.3000503 382.082880
      6      8      9     1   110.4900475 393.547040
      6      8     10     1   110.4900475 393.547040
      5      4      6     1   120.9400517 418.734720
      4      6      7     1   120.9400517 418.734720
      3      1      4     1   110.4900475 393.547040
      3      1     38     1   110.0500475 388.024160
      2      1      3     1   108.3500467 329.950240
      2      1      4     1   110.4900475 393.547040
      2      1     38     1   110.0500475 388.024160
      1      4      5     1   117.3000503 382.082880
      1     38     39     1   110.0500475 388.024160
      1     38     40     1   110.0500475 388.024160
     87    123    124     1   109.6800468 394.969600
     87    123    125     1   109.6800468 394.969600
     82     80     83     1   110.7400473 326.686720
     81     80     82     1   110.7400473 326.686720
     81     80     83     1   110.7400473 326.686720
     78     76     79     1   110.7400473 326.686720
     77     76     78     1   110.7400473 326.686720
     77     76     79     1   110.7400473 326.686720
     74     72     75     1   110.7400473 326.686720
     73     72     74     1   110.7400473 326.686720
     73     72     75     1   110.7400473 326.686720
     71     72     73     1   107.9100461 410.199360
     71     72     74     1   107.9100461 410.199360
     71     72     75     1   107.9100461 410.199360
     71     76     77     1   107.9100461 410.199360
     71     76     78     1   107.9100461 410.199360
     71     76     79     1   107.9100461 410.199360
     71     80     81     1   107.9100461 410.199360
     71     80     82     1   107.9100461 410.199360
     71     80     83     1   107.9100461 410.199360
     70     68     71     1   107.9100461 410.199360
     69     68     70     1   110.7400473 326.686720
     69     68     71     1   107.9100461 410.199360
     67     65     68     1   110.0700471 387.940480
     66     65     67     1   109.5500472 327.858240
     66     65     68     1   110.0700471 387.940480
     65     68     69     1   111.7400478 385.095360
     65     68     70     1   111.7400478 385.095360
     64     65     66     1   108.8200469 425.429120
     64     65     67     1   108.8200469 425.429120
     61     59     62     1   108.8200469 425.429120
     60     59     61     1   109.5500472 327.858240
     60     59     62     1   108.8200469 425.429120
     58     57     59     1   110.0700471 387.940480
     58     57     86     1   108.8200469 425.429120
     57     59     60     1   110.0700471 387.940480
     57     59     61     1   110.0700471 387.940480
     56     54     57     1   110.0700471 387.940480
     55     54     56     1   109.5500472 327.858240
     55     54     57     1   110.0700471 387.940480
     54     57     58     1   110.0700471 387.940480
     53     54     55     1   108.8200469 425.429120
     53     54     56     1   108.8200469 425.429120
    137    135    138     1   108.3500467 329.950240
    136    135    137     1   108.3500467 329.950240
    136    135    138     1   108.3500467 329.950240
    134    132    135     1   110.0500475 388.024160
    133    132    134     1   108.3500467 329.950240
    133    132    135     1   110.0500475 388.024160
    132    135    136     1   110.0500475 388.024160
    132    135    137     1   110.0500475 388.024160
    132    135    138     1   110.0500475 388.024160
    131    129    132     1   110.0500475 388.024160
    130    129    131     1   108.3500467 329.950240
    130    129    132     1   110.0500475 388.024160
    129    132    133     1   110.0500475 388.024160
    129    132    134     1   110.0500475 388.024160
    128    126    129     1   110.0500475 388.024160
    127    126    128     1   108.3500467 329.950240
    127    126    129     1   110.0500475 388.024160
    126    129    130     1   110.0500475 388.024160
    126    129    131     1   110.0500475 388.024160
    124    123    125     1   108.3500467 329.950240
    122    120    123     1   110.0500475 388.024160
    121    120    122     1   108.3500467 329.950240
    121    120    123     1   110.0500475 388.024160
    120    123    124     1   110.0500475 388.024160
    120    123    125     1   110.0500475 388.024160
    119    117    120     1   110.0500475 388.024160
    118    117    119     1   108.3500467 329.950240
    118    117    120     1   110.0500475 388.024160
    117    120    121     1   110.0500475 388.024160
    117    120    122     1   110.0500475 388.024160
    116    115    117     1   117.3000503 382.082880
    115    117    118     1   110.4900475 393.547040
    115    117    119     1   110.4900475 393.547040
    114    113    115     1   120.9400517 418.734720
    113    115    116     1   120.9400517 418.734720
    112    110    113     1   110.4900475 393.547040
    111    110    112     1   108.3500467 329.950240
    111    110    113     1   110.4900475 393.547040
    110    113    114     1   117.3000503 382.082880
    109    108    110     1   117.3000503 382.082880
    108    110    111     1   110.4900475 393.547040
    108    110    112     1   110.4900475 393.547040
    107    106    108     1   120.9400517 418.734720
    106    108    109     1   120.9400517 418.734720
    105    103    106     1   110.4900475 393.547040
    104    103    105     1   108.3500467 329.950240
    104    103    106     1   110.4900475 393.547040
    103    106    107     1   117.3000503 382.082880
    102    101    103     1   117.3000503 382.082880
    101    103    104     1   110.4900475 393.547040
    101    103    105     1   110.4900475 393.547040
    100     99    101     1   120.9400517 418.734720
     99    101    102     1   120.9400517 418.734720
     98     96     99     1   110.4900475 393.547040
     97     96     98     1   108.3500467 329.950240
     97     96     99     1   110.4900475 393.547040
     96     99    100     1   117.3000503 382.082880
     95     94     96     1   117.3000503 382.082880
     94     96     97     1   110.4900475 393.547040
     94     96     98     1   110.4900475 393.547040
     93     92     94     1   120.9400517 418.734720
     92     94     95     1   120.9400517 418.734720
     91     89     92     1   110.4900475 393.547040
     91     89    126     1   110.0500475 388.024160
     90     89     91     1   108.3500467 329.950240
     90     89     92     1   110.4900475 393.547040
     90     89    126     1   110.0500475 388.024160
     89     92     93     1   117.3000503 382.082880
     89    126    127     1   110.0500475 388.024160
     89    126    128     1   110.0500475 388.024160


[ dihedrals ]
;    ai     aj     ak     al funct         c0         c1         c2         c3         c4         c5
     38     41     44     47     1  0.0000000  0.4184000  1
     38     41     44     47     1  0.0000000  0.4184000  2
     38     41     44     47     1  0.0000000  1.2552000  3
     38     41     44     47     1  0.0000000  0.4184000  4
     38     41     44     47     1  0.0000000  0.4184000  5
     35     51     53     54     1  180.0000771  11.2968000  2
     32     35     51     52     1  180.0000771  0.0000000  2
     32     35     51     53     1  180.0000771  0.0000000  2
     29     32     35     51     1  0.0000000  0.6527040  3
     27     29     32     35     1  0.0000000  0.0000000  1
     27     29     32     35     1  0.0000000  0.0000000  2
     27     29     32     35     1  0.0000000  2.0920000  3
     27     29     32     35     1  0.0000000  0.0000000  4
     27     29     32     35     1  0.0000000  0.4184000  5
     25     27     29     32     1  0.0000000  2.5104000  1
     25     27     29     32     1  180.0000771  1.6736000  2
     25     27     29     32     1  180.0000771  1.6736000  3
     25     27     29     32     1  180.0000771  0.8368000  4
     25     27     29     32     1  180.0000771  0.8368000  5
     22     25     27     29     1  180.0000771  7.1128000  1
     22     25     27     29     1  180.0000771  13.8072000  2
     22     25     27     29     1  0.0000000  2.5104000  3
     22     25     27     29     1  0.0000000  0.0000000  4
     22     25     27     29     1  0.0000000  0.0000000  5
     20     22     25     27     1  0.0000000  0.0000000  1
     20     22     25     27     1  0.0000000  0.0000000  2
     20     22     25     27     1  0.0000000  0.0000000  3
     20     22     25     27     1  0.0000000  0.0000000  4
     20     22     25     27     1  0.0000000  0.0000000  5
     18     20     22     25     1  0.0000000  0.0000000  1
     18     20     22     25     1  0.0000000  0.0000000  2
     18     20     22     25     1  0.0000000  0.0000000  3
     18     20     22     25     1  0.0000000  0.0000000  4
     18     20     22     25     1  0.0000000  0.0000000  5
     15     18     20     22     1  180.0000771  7.1128000  1
     15     18     20     22     1  180.0000771  13.8072000  2
     15     18     20     22     1  0.0000000  2.5104000  3
     15     18     20     22     1  0.0000000  0.0000000  4
     15     18     20     22     1  0.0000000  0.0000000  5
     13     15     18     20     1  0.0000000  0.0000000  1
     13     15     18     20     1  0.0000000  0.0000000  2
     13     15     18     20     1  0.0000000  0.0000000  3
     13     15     18     20     1  0.0000000  0.0000000  4
     13     15     18     20     1  0.0000000  0.0000000  5
     11     13     15     18     1  0.0000000  0.0000000  1
     11     13     15     18     1  0.0000000  0.0000000  2
     11     13     15     18     1  0.0000000  0.0000000  3
     11     13     15     18     1  0.0000000  0.0000000  4
     11     13     15     18     1  0.0000000  0.0000000  5
      8     11     13     15     1  180.0000771  7.1128000  1
      8     11     13     15     1  180.0000771  13.8072000  2
      8     11     13     15     1  0.0000000  2.5104000  3
      8     11     13     15     1  0.0000000  0.0000000  4
      8     11     13     15     1  0.0000000  0.0000000  5
     38      1      4      6     1  0.0000000  2.5104000  1
     38      1      4      6     1  180.0000771  1.6736000  2
     38      1      4      6     1  180.0000771  1.6736000  3
     38      1      4      6     1  180.0000771  0.8368000  4
     38      1      4      6     1  180.0000771  0.8368000  5
      6      8     11     13     1  0.0000000  0.0000000  1
      6      8     11     13     1  0.0000000  0.0000000  2
      6      8     11     13     1  0.0000000  0.0000000  3
      6      8     11     13     1  0.0000000  0.0000000  4
      6      8     11     13     1  0.0000000  0.0000000  5
      4      1     38     41     1  0.0000000  0.0000000  1
      4      1     38     41     1  0.0000000  0.0000000  2
      4      1     38     41     1  0.0000000  2.0920000  3
      4      1     38     41     1  0.0000000  0.0000000  4
      4      1     38     41     1  0.0000000  0.4184000  5
      4      6      8     11     1  0.0000000  0.0000000  1
      4      6      8     11     1  0.0000000  0.0000000  2
      4      6      8     11     1  0.0000000  0.0000000  3
      4      6      8     11     1  0.0000000  0.0000000  4
      4      6      8     11     1  0.0000000  0.0000000  5
      1      4      6      8     1  180.0000771  7.1128000  1
      1      4      6      8     1  180.0000771  13.8072000  2
      1      4      6      8     1  0.0000000  2.5104000  3
      1      4      6      8     1  0.0000000  0.0000000  4
      1      4      6      8     1  0.0000000  0.0000000  5
      1     38     41     44     1  0.0000000  0.4184000  1
      1     38     41     44     1  0.0000000  0.4184000  2
      1     38     41     44     1  0.0000000  1.2552000  3
      1     38     41     44     1  0.0000000  0.4184000  4
      1     38     41     44     1  0.0000000  0.4184000  5
     88     87    123    120     1  180.0000771  0.0000000  2
     87    123    120    117     1  0.0000000  0.6527040  3
     86     87    123    120     1  180.0000771  0.0000000  2
     65     64     63     84     1  0.0000000  0.0000000  1
     65     64     63     84     1  0.0000000  0.8368000  2
     65     64     63     84     1  0.0000000  0.0000000  3
     65     64     63     84     1  0.0000000  0.0000000  4
     65     64     63     84     1  0.0000000  0.0000000  5
     65     64     63     85     1  0.0000000  0.0000000  1
     65     64     63     85     1  0.0000000  0.8368000  2
     65     64     63     85     1  0.0000000  0.0000000  3
     65     64     63     85     1  0.0000000  0.0000000  4
     65     64     63     85     1  0.0000000  0.0000000  5
     65     68     71     72     1  0.0000000  0.6527040  3
     65     68     71     76     1  0.0000000  0.6527040  3
     65     68     71     80     1  0.0000000  0.6527040  3
     64     65     68     71     1  0.0000000  4.1840000  3
     63     64     65     68     1  180.0000771  -3.3472000  2
     63     64     65     68     1  0.0000000  0.0000000  3
     62     59     57     86     1  0.0000000  0.0000000  1
     62     59     57     86     1  0.0000000  0.0000000  2
     62     59     57     86     1  0.0000000  0.0000000  3
     62     59     57     86     1  0.0000000  0.0000000  4
     62     59     57     86     1  0.0000000  0.0000000  5
     62     63     64     65     1  0.0000000  9.6232000  2
     62     63     64     65     1  0.0000000  2.5104000  3
     59     57     86     87     1  0.0000000  -0.4184000  1
     59     57     86     87     1  240.0001029  -1.2552000  2
     59     57     86     87     1  300.0001286  -0.8368000  3
     59     62     63     64     1  0.0000000  9.6232000  2
     59     62     63     64     1  0.0000000  2.5104000  3
     59     62     63     84     1  0.0000000  0.0000000  1
     59     62     63     84     1  0.0000000  0.8368000  2
     59     62     63     84     1  0.0000000  0.0000000  3
     59     62     63     84     1  0.0000000  0.0000000  4
     59     62     63     84     1  0.0000000  0.0000000  5
     59     62     63     85     1  0.0000000  0.0000000  1
     59     62     63     85     1  0.0000000  0.8368000  2
     59     62     63     85     1  0.0000000  0.0000000  3
     59     62     63     85     1  0.0000000  0.0000000  4
     59     62     63     85     1  0.0000000  0.0000000  5
     57     59     62     63     1  180.0000771  -3.3472000  2
     57     59     62     63     1  0.0000000  0.0000000  3
     57     86     87     88     1  180.0000771  5.8576000  1
     57     86     87     88     1  180.0000771  11.2968000  2
     57     86     87    123     1  180.0000771  11.2968000  2
     54     57     59     62     1  180.0000771  3.3472000  1
     54     57     59     62     1  120.0000514  0.8368000  2
     54     57     59     62     1  60.0000257  1.6736000  3
     54     57     86     87     1  0.0000000  -0.4184000  1
     54     57     86     87     1  240.0001029  -1.2552000  2
     54     57     86     87     1  300.0001286  -0.8368000  3
     53     54     57     59     1  0.0000000  0.0000000  1
     53     54     57     59     1  0.0000000  0.0000000  2
     53     54     57     59     1  0.0000000  0.0000000  3
     53     54     57     59     1  0.0000000  0.0000000  4
     53     54     57     59     1  0.0000000  0.0000000  5
     53     54     57     86     1  180.0000771  -0.4184000  1
     53     54     57     86     1  0.0000000  1.2552000  2
     53     54     57     86     1  0.0000000  4.1840000  3
     52     51     53     54     1  180.0000771  5.8576000  1
     52     51     53     54     1  180.0000771  11.2968000  2
     51     53     54     57     1  0.0000000  -0.4184000  1
     51     53     54     57     1  240.0001029  -1.2552000  2
     51     53     54     57     1  300.0001286  -0.8368000  3
    126    129    132    135     1  0.0000000  0.4184000  1
    126    129    132    135     1  0.0000000  0.4184000  2
    126    129    132    135     1  0.0000000  1.2552000  3
    126    129    132    135     1  0.0000000  0.4184000  4
    126    129    132    135     1  0.0000000  0.4184000  5
    115    117    120    123     1  0.0000000  0.0000000  1
    115    117    120    123     1  0.0000000  0.0000000  2
    115    117    120    123     1  0.0000000  2.0920000  3
    115    117    120    123     1  0.0000000  0.0000000  4
    115    117    120    123     1  0.0000000  0.4184000  5
    113    115    117    120     1  0.0000000  2.5104000  1
    113    115    117    120     1  180.0000771  1.6736000  2
    113    115    117    120     1  180.0000771  1.6736000  3
    113    115    117    120     1  180.0000771  0.8368000  4
    113    115    117    120     1  180.0000771  0.8368000  5
    110    113    115    117     1  180.0000771  7.1128000  1
    110    113    115    117     1  180.0000771  13.8072000  2
    110    113    115    117     1  0.0000000  2.5104000  3
    110    113    115    117     1  0.0000000  0.0000000  4
    110    113    115    117     1  0.0000000  0.0000000  5
    108    110    113    115     1  0.0000000  0.0000000  1
    108    110    113    115     1  0.0000000  0.0000000  2
    108    110    113    115     1  0.0000000  0.0000000  3
    108    110    113    115     1  0.0000000  0.0000000  4
    108    110    113    115     1  0.0000000  0.0000000  5
    106    108    110    113     1  0.0000000  0.0000000  1
    106    108    110    113     1  0.0000000  0.0000000  2
    106    108    110    113     1  0.0000000  0.0000000  3
    106    108    110    113     1  0.0000000  0.0000000  4
    106    108    110    113     1  0.0000000  0.0000000  5
    103    106    108    110     1  180.0000771  7.1128000  1
    103    106    108    110     1  180.0000771  13.8072000  2
    103    106    108    110     1  0.0000000  2.5104000  3
    103    106    108    110     1  0.0000000  0.0000000  4
    103    106    108    110     1  0.0000000  0.0000000  5
    101    103    106    108     1  0.0000000  0.0000000  1
    101    103    106    108     1  0.0000000  0.0000000  2
    101    103    106    108     1  0.0000000  0.0000000  3
    101    103    106    108     1  0.0000000  0.0000000  4
    101    103    106    108     1  0.0000000  0.0000000  5
     99    101    103    106     1  0.0000000  0.0000000  1
     99    101    103    106     1  0.0000000  0.0000000  2
     99    101    103    106     1  0.0000000  0.0000000  3
     99    101    103    106     1  0.0000000  0.0000000  4
     99    101    103    106     1  0.0000000  0.0000000  5
     96     99    101    103     1  180.0000771  7.1128000  1
     96     99    101    103     1  180.0000771  13.8072000  2
     96     99    101    103     1  0.0000000  2.5104000  3
     96     99    101    103     1  0.0000000  0.0000000  4
     96     99    101    103     1  0.0000000  0.0000000  5
     94     92     89    126     1  0.0000000  2.5104000  1
     94     92     89    126     1  180.0000771  1.6736000  2
     94     92     89    126     1  180.0000771  1.6736000  3
     94     92     89    126     1  180.0000771  0.8368000  4
     94     92     89    126     1  180.0000771  0.8368000  5
     94     96     99    101     1  0.0000000  0.0000000  1
     94     96     99    101     1  0.0000000  0.0000000  2
     94     96     99    101     1  0.0000000  0.0000000  3
     94     96     99    101     1  0.0000000  0.0000000  4
     94     96     99    101     1  0.0000000  0.0000000  5
     92     89    126    129     1  0.0000000  0.0000000  1
     92     89    126    129     1  0.0000000  0.0000000  2
     92     89    126    129     1  0.0000000  2.0920000  3
     92     89    126    129     1  0.0000000  0.0000000  4
     92     89    126    129     1  0.0000000  0.4184000  5
     92     94     96     99     1  0.0000000  0.0000000  1
     92     94     96     99     1  0.0000000  0.0000000  2
     92     94     96     99     1  0.0000000  0.0000000  3
     92     94     96     99     1  0.0000000  0.0000000  4
     92     94     96     99     1  0.0000000  0.0000000  5
     89     92     94     96     1  180.0000771  7.1128000  1
     89     92     94     96     1  180.0000771  13.8072000  2
     89     92     94     96     1  0.0000000  2.5104000  3
     89     92     94     96     1  0.0000000  0.0000000  4
     89     92     94     96     1  0.0000000  0.0000000  5
     89    126    129    132     1  0.0000000  0.4184000  1
     89    126    129    132     1  0.0000000  0.4184000  2
     89    126    129    132     1  0.0000000  1.2552000  3
     89    126    129    132     1  0.0000000  0.4184000  4
     89    126    129    132     1  0.0000000  0.4184000  5
    123     88     87     86     4  180.0000771  43.9320000  2
     35     52     51     53     4  180.0000771  43.9320000  2
     46     44     47     48     1  0.0000000  0.6276000  3
     46     44     47     49     1  0.0000000  0.6276000  3
     46     44     47     50     1  0.0000000  0.6276000  3
     45     44     47     48     1  0.0000000  0.6276000  3
     45     44     47     49     1  0.0000000  0.6276000  3
     45     44     47     50     1  0.0000000  0.6276000  3
     43     41     44     45     1  0.0000000  0.6276000  3
     43     41     44     46     1  0.0000000  0.6276000  3
     43     41     44     47     1  0.0000000  0.6694400  3
     42     41     44     45     1  0.0000000  0.6276000  3
     42     41     44     46     1  0.0000000  0.6276000  3
     42     41     44     47     1  0.0000000  0.6694400  3
     41     44     47     48     1  0.0000000  0.6694400  3
     41     44     47     49     1  0.0000000  0.6694400  3
     41     44     47     50     1  0.0000000  0.6694400  3
     40     38     41     42     1  0.0000000  0.6276000  3
     40     38     41     43     1  0.0000000  0.6276000  3
     40     38     41     44     1  0.0000000  0.6694400  3
     39     38     41     42     1  0.0000000  0.6276000  3
     39     38     41     43     1  0.0000000  0.6276000  3
     39     38     41     44     1  0.0000000  0.6694400  3
     38     41     44     45     1  0.0000000  0.6694400  3
     38     41     44     46     1  0.0000000  0.6694400  3
     37     35     51     52     1  0.0000000  3.3472000  1
     37     35     51     52     1  180.0000771  0.3347200  3
     37     35     51     53     1  180.0000771  0.0000000  2
     36     35     51     52     1  0.0000000  3.3472000  1
     36     35     51     52     1  180.0000771  0.3347200  3
     36     35     51     53     1  180.0000771  0.0000000  2
     34     32     35     36     1  0.0000000  0.6276000  3
     34     32     35     37     1  0.0000000  0.6276000  3
     34     32     35     51     1  0.0000000  0.6527040  3
     33     32     35     36     1  0.0000000  0.6276000  3
     33     32     35     37     1  0.0000000  0.6276000  3
     33     32     35     51     1  0.0000000  0.6527040  3
     31     29     32     33     1  0.0000000  0.6276000  3
     31     29     32     34     1  0.0000000  0.6276000  3
     31     29     32     35     1  0.0000000  0.6694400  3
     30     29     32     33     1  0.0000000  0.6276000  3
     30     29     32     34     1  0.0000000  0.6276000  3
     30     29     32     35     1  0.0000000  0.6694400  3
     29     32     35     36     1  0.0000000  0.6694400  3
     29     32     35     37     1  0.0000000  0.6694400  3
     28     27     29     30     1  0.0000000  0.0000000  2
     28     27     29     31     1  0.0000000  0.0000000  2
     28     27     29     32     1  0.0000000  0.0000000  2
     27     29     32     33     1  0.0000000  0.6510304  3
     27     29     32     34     1  0.0000000  0.6510304  3
     26     25     27     28     1  180.0000771  27.8236000  2
     26     25     27     29     1  180.0000771  27.8236000  2
     25     27     29     30     1  0.0000000  4.8116000  1
     25     27     29     30     1  180.0000771  1.5899200  3
     25     27     29     31     1  0.0000000  4.8116000  1
     25     27     29     31     1  180.0000771  1.5899200  3
     24     22     25     26     1  0.0000000  0.0000000  2
     24     22     25     27     1  0.0000000  4.8116000  1
     24     22     25     27     1  180.0000771  1.5899200  3
     23     22     25     26     1  0.0000000  0.0000000  2
     23     22     25     27     1  0.0000000  4.8116000  1
     23     22     25     27     1  180.0000771  1.5899200  3
     22     25     27     28     1  180.0000771  27.8236000  2
     21     20     22     23     1  0.0000000  0.0000000  2
     21     20     22     24     1  0.0000000  0.0000000  2
     21     20     22     25     1  0.0000000  0.0000000  2
     20     22     25     26     1  0.0000000  0.0000000  2
     19     18     20     21     1  180.0000771  27.8236000  2
     19     18     20     22     1  180.0000771  27.8236000  2
     18     20     22     23     1  0.0000000  4.8116000  1
     18     20     22     23     1  180.0000771  1.5899200  3
     18     20     22     24     1  0.0000000  4.8116000  1
     18     20     22     24     1  180.0000771  1.5899200  3
     17     15     18     19     1  0.0000000  0.0000000  2
     17     15     18     20     1  0.0000000  4.8116000  1
     17     15     18     20     1  180.0000771  1.5899200  3
     16     15     18     19     1  0.0000000  0.0000000  2
     16     15     18     20     1  0.0000000  4.8116000  1
     16     15     18     20     1  180.0000771  1.5899200  3
     15     18     20     21     1  180.0000771  27.8236000  2
     14     13     15     16     1  0.0000000  0.0000000  2
     14     13     15     17     1  0.0000000  0.0000000  2
     14     13     15     18     1  0.0000000  0.0000000  2
     13     15     18     19     1  0.0000000  0.0000000  2
     12     11     13     14     1  180.0000771  27.8236000  2
     12     11     13     15     1  180.0000771  27.8236000  2
     11     13     15     16     1  0.0000000  4.8116000  1
     11     13     15     16     1  180.0000771  1.5899200  3
     11     13     15     17     1  0.0000000  4.8116000  1
     11     13     15     17     1  180.0000771  1.5899200  3
     10      8     11     12     1  0.0000000  0.0000000  2
     10      8     11     13     1  0.0000000  4.8116000  1
     10      8     11     13     1  180.0000771  1.5899200  3
      9      8     11     12     1  0.0000000  0.0000000  2
      9      8     11     13     1  0.0000000  4.8116000  1
      9      8     11     13     1  180.0000771  1.5899200  3
      8     11     13     14     1  180.0000771  27.8236000  2
      7      6      8      9     1  0.0000000  0.0000000  2
      7      6      8     10     1  0.0000000  0.0000000  2
      7      6      8     11     1  0.0000000  0.0000000  2
      6      8     11     12     1  0.0000000  0.0000000  2
     38      1      4      5     1  0.0000000  0.0000000  2
      5      4      6      7     1  180.0000771  27.8236000  2
      5      4      6      8     1  180.0000771  27.8236000  2
      4      1     38     39     1  0.0000000  0.6510304  3
      4      1     38     40     1  0.0000000  0.6510304  3
      4      6      8      9     1  0.0000000  4.8116000  1
      4      6      8      9     1  180.0000771  1.5899200  3
      4      6      8     10     1  0.0000000  4.8116000  1
      4      6      8     10     1  180.0000771  1.5899200  3
      3      1      4      5     1  0.0000000  0.0000000  2
      3      1      4      6     1  0.0000000  4.8116000  1
      3      1      4      6     1  180.0000771  1.5899200  3
      3      1     38     39     1  0.0000000  0.6276000  3
      3      1     38     40     1  0.0000000  0.6276000  3
      3      1     38     41     1  0.0000000  0.6694400  3
      2      1      4      5     1  0.0000000  0.0000000  2
      2      1      4      6     1  0.0000000  4.8116000  1
      2      1      4      6     1  180.0000771  1.5899200  3
      2      1     38     39     1  0.0000000  0.6276000  3
      2      1     38     40     1  0.0000000  0.6276000  3
      2      1     38     41     1  0.0000000  0.6694400  3
      1      4      6      7     1  180.0000771  27.8236000  2
      1     38     41     42     1  0.0000000  0.6694400  3
      1     38     41     43     1  0.0000000  0.6694400  3
     88     87    123    124     1  0.0000000  3.3472000  1
     88     87    123    124     1  180.0000771  0.3347200  3
     88     87    123    125     1  0.0000000  3.3472000  1
     88     87    123    125     1  180.0000771  0.3347200  3
     87    123    120    121     1  0.0000000  0.6527040  3
     87    123    120    122     1  0.0000000  0.6527040  3
     86     87    123    124     1  180.0000771  0.0000000  2
     86     87    123    125     1  180.0000771  0.0000000  2
     79     76     71     80     1  0.0000000  0.6527040  3
     78     76     71     80     1  0.0000000  0.6527040  3
     77     76     71     80     1  0.0000000  0.6527040  3
     76     71     80     81     1  0.0000000  0.6527040  3
     76     71     80     82     1  0.0000000  0.6527040  3
     76     71     80     83     1  0.0000000  0.6527040  3
     75     72     71     76     1  0.0000000  0.6527040  3
     75     72     71     80     1  0.0000000  0.6527040  3
     74     72     71     76     1  0.0000000  0.6527040  3
     74     72     71     80     1  0.0000000  0.6527040  3
     73     72     71     76     1  0.0000000  0.6527040  3
     73     72     71     80     1  0.0000000  0.6527040  3
     72     71     76     77     1  0.0000000  0.6527040  3
     72     71     76     78     1  0.0000000  0.6527040  3
     72     71     76     79     1  0.0000000  0.6527040  3
     72     71     80     81     1  0.0000000  0.6527040  3
     72     71     80     82     1  0.0000000  0.6527040  3
     72     71     80     83     1  0.0000000  0.6527040  3
     70     68     71     72     1  0.0000000  0.6527040  3
     70     68     71     76     1  0.0000000  0.6527040  3
     70     68     71     80     1  0.0000000  0.6527040  3
     69     68     71     72     1  0.0000000  0.6527040  3
     69     68     71     76     1  0.0000000  0.6527040  3
     69     68     71     80     1  0.0000000  0.6527040  3
     68     71     72     73     1  0.0000000  0.6527040  3
     68     71     72     74     1  0.0000000  0.6527040  3
     68     71     72     75     1  0.0000000  0.6527040  3
     68     71     76     77     1  0.0000000  0.6527040  3
     68     71     76     78     1  0.0000000  0.6527040  3
     68     71     76     79     1  0.0000000  0.6527040  3
     68     71     80     81     1  0.0000000  0.6527040  3
     68     71     80     82     1  0.0000000  0.6527040  3
     68     71     80     83     1  0.0000000  0.6527040  3
     67     65     68     69     1  0.0000000  0.6527040  3
     67     65     68     70     1  0.0000000  0.6527040  3
     67     65     68     71     1  0.0000000  0.6527040  3
     66     65     68     69     1  0.0000000  0.6527040  3
     66     65     68     70     1  0.0000000  0.6527040  3
     66     65     68     71     1  0.0000000  0.6527040  3
     64     65     68     69     1  0.0000000  0.6527040  3
     64     65     68     70     1  0.0000000  0.6527040  3
     63     64     65     66     1  0.0000000  0.0000000  1
     63     64     65     66     1  0.0000000  0.0000000  2
     63     64     65     66     1  0.0000000  1.6024720  3
     63     64     65     66     1  0.0000000  0.0000000  4
     63     64     65     66     1  0.0000000  0.0000000  5
     63     64     65     67     1  0.0000000  0.0000000  1
     63     64     65     67     1  0.0000000  0.0000000  2
     63     64     65     67     1  0.0000000  1.6024720  3
     63     64     65     67     1  0.0000000  0.0000000  4
     63     64     65     67     1  0.0000000  0.0000000  5
     61     59     57     86     1  0.0000000  1.0460000  1
     61     59     57     86     1  0.0000000  0.0000000  3
     61     59     62     63     1  0.0000000  0.0000000  1
     61     59     62     63     1  0.0000000  0.0000000  2
     61     59     62     63     1  0.0000000  1.6024720  3
     61     59     62     63     1  0.0000000  0.0000000  4
     61     59     62     63     1  0.0000000  0.0000000  5
     60     59     57     86     1  0.0000000  1.0460000  1
     60     59     57     86     1  0.0000000  0.0000000  3
     60     59     62     63     1  0.0000000  0.0000000  1
     60     59     62     63     1  0.0000000  0.0000000  2
     60     59     62     63     1  0.0000000  1.6024720  3
     60     59     62     63     1  0.0000000  0.0000000  4
     60     59     62     63     1  0.0000000  0.0000000  5
     58     57     59     60     1  0.0000000  0.6527040  3
     58     57     59     61     1  0.0000000  0.6527040  3
     58     57     59     62     1  0.0000000  1.0460000  1
     58     57     59     62     1  0.0000000  0.0000000  3
     58     57     86     87     1  0.0000000  1.6024720  3
     56     54     57     58     1  0.0000000  0.6527040  3
     56     54     57     59     1  0.0000000  0.6527040  3
     56     54     57     86     1  0.0000000  1.0460000  1
     56     54     57     86     1  0.0000000  0.0000000  3
     55     54     57     58     1  0.0000000  0.6527040  3
     55     54     57     59     1  0.0000000  0.6527040  3
     55     54     57     86     1  0.0000000  1.0460000  1
     55     54     57     86     1  0.0000000  0.0000000  3
     54     57     59     60     1  0.0000000  0.6527040  3
     54     57     59     61     1  0.0000000  0.6527040  3
     53     54     57     58     1  0.0000000  1.0460000  1
     53     54     57     58     1  0.0000000  0.0000000  3
     51     53     54     55     1  0.0000000  1.6024720  3
     51     53     54     56     1  0.0000000  1.6024720  3
    134    132    135    136     1  0.0000000  0.6276000  3
    134    132    135    137     1  0.0000000  0.6276000  3
    134    132    135    138     1  0.0000000  0.6276000  3
    133    132    135    136     1  0.0000000  0.6276000  3
    133    132    135    137     1  0.0000000  0.6276000  3
    133    132    135    138     1  0.0000000  0.6276000  3
    131    129    132    133     1  0.0000000  0.6276000  3
    131    129    132    134     1  0.0000000  0.6276000  3
    131    129    132    135     1  0.0000000  0.6694400  3
    130    129    132    133     1  0.0000000  0.6276000  3
    130    129    132    134     1  0.0000000  0.6276000  3
    130    129    132    135     1  0.0000000  0.6694400  3
    129    132    135    136     1  0.0000000  0.6694400  3
    129    132    135    137     1  0.0000000  0.6694400  3
    129    132    135    138     1  0.0000000  0.6694400  3
    128    126    129    130     1  0.0000000  0.6276000  3
    128    126    129    131     1  0.0000000  0.6276000  3
    128    126    129    132     1  0.0000000  0.6694400  3
    127    126    129    130     1  0.0000000  0.6276000  3
    127    126    129    131     1  0.0000000  0.6276000  3
    127    126    129    132     1  0.0000000  0.6694400  3
    126    129    132    133     1  0.0000000  0.6694400  3
    126    129    132    134     1  0.0000000  0.6694400  3
    122    120    123    124     1  0.0000000  0.6276000  3
    122    120    123    125     1  0.0000000  0.6276000  3
    121    120    123    124     1  0.0000000  0.6276000  3
    121    120    123    125     1  0.0000000  0.6276000  3
    119    117    120    121     1  0.0000000  0.6276000  3
    119    117    120    122     1  0.0000000  0.6276000  3
    119    117    120    123     1  0.0000000  0.6694400  3
    118    117    120    121     1  0.0000000  0.6276000  3
    118    117    120    122     1  0.0000000  0.6276000  3
    118    117    120    123     1  0.0000000  0.6694400  3
    117    120    123    124     1  0.0000000  0.6694400  3
    117    120    123    125     1  0.0000000  0.6694400  3
    116    115    117    118     1  0.0000000  0.0000000  2
    116    115    117    119     1  0.0000000  0.0000000  2
    116    115    117    120     1  0.0000000  0.0000000  2
    115    117    120    121     1  0.0000000  0.6510304  3
    115    117    120    122     1  0.0000000  0.6510304  3
    114    113    115    116     1  180.0000771  27.8236000  2
    114    113    115    117     1  180.0000771  27.8236000  2
    113    115    117    118     1  0.0000000  4.8116000  1
    113    115    117    118     1  180.0000771  1.5899200  3
    113    115    117    119     1  0.0000000  4.8116000  1
    113    115    117    119     1  180.0000771  1.5899200  3
    112    110    113    114     1  0.0000000  0.0000000  2
    112    110    113    115     1  0.0000000  4.8116000  1
    112    110    113    115     1  180.0000771  1.5899200  3
    111    110    113    114     1  0.0000000  0.0000000  2
    111    110    113    115     1  0.0000000  4.8116000  1
    111    110    113    115     1  180.0000771  1.5899200  3
    110    113    115    116     1  180.0000771  27.8236000  2
    109    108    110    111     1  0.0000000  0.0000000  2
    109    108    110    112     1  0.0000000  0.0000000  2
    109    108    110    113     1  0.0000000  0.0000000  2
    108    110    113    114     1  0.0000000  0.0000000  2
    107    106    108    109     1  180.0000771  27.8236000  2
    107    106    108    110     1  180.0000771  27.8236000  2
    106    108    110    111     1  0.0000000  4.8116000  1
    106    108    110    111     1  180.0000771  1.5899200  3
    106    108    110    112     1  0.0000000  4.8116000  1
    106    108    110    112     1  180.0000771  1.5899200  3
    105    103    106    107     1  0.0000000  0.0000000  2
    105    103    106    108     1  0.0000000  4.8116000  1
    105    103    106    108     1  180.0000771  1.5899200  3
    104    103    106    107     1  0.0000000  0.0000000  2
    104    103    106    108     1  0.0000000  4.8116000  1
    104    103    106    108     1  180.0000771  1.5899200  3
    103    106    108    109     1  180.0000771  27.8236000  2
    102    101    103    104     1  0.0000000  0.0000000  2
    102    101    103    105     1  0.0000000  0.0000000  2
    102    101    103    106     1  0.0000000  0.0000000  2
    101    103    106    107     1  0.0000000  0.0000000  2
    100     99    101    102     1  180.0000771  27.8236000  2
    100     99    101    103     1  180.0000771  27.8236000  2
     99    101    103    104     1  0.0000000  4.8116000  1
     99    101    103    104     1  180.0000771  1.5899200  3
     99    101    103    105     1  0.0000000  4.8116000  1
     99    101    103    105     1  180.0000771  1.5899200  3
     98     96     99    100     1  0.0000000  0.0000000  2
     98     96     99    101     1  0.0000000  4.8116000  1
     98     96     99    101     1  180.0000771  1.5899200  3
     97     96     99    100     1  0.0000000  0.0000000  2
     97     96     99    101     1  0.0000000  4.8116000  1
     97     96     99    101     1  180.0000771  1.5899200  3
     96     99    101    102     1  180.0000771  27.8236000  2
     95     94     96     97     1  0.0000000  0.0000000  2
     95     94     96     98     1  0.0000000  0.0000000  2
     95     94     96     99     1  0.0000000  0.0000000  2
     94     96     99    100     1  0.0000000  0.0000000  2
     93     92     89    126     1  0.0000000  0.0000000  2
     93     92     94     95     1  180.0000771  27.8236000  2
     93     92     94     96     1  180.0000771  27.8236000  2
     92     89    126    127     1  0.0000000  0.6510304  3
     92     89    126    128     1  0.0000000  0.6510304  3
     92     94     96     97     1  0.0000000  4.8116000  1
     92     94     96     97     1  180.0000771  1.5899200  3
     92     94     96     98     1  0.0000000  4.8116000  1
     92     94     96     98     1  180.0000771  1.5899200  3
     91     89     92     93     1  0.0000000  0.0000000  2
     91     89     92     94     1  0.0000000  4.8116000  1
     91     89     92     94     1  180.0000771  1.5899200  3
     91     89    126    127     1  0.0000000  0.6276000  3
     91     89    126    128     1  0.0000000  0.6276000  3
     91     89    126    129     1  0.0000000  0.6694400  3
     90     89     92     93     1  0.0000000  0.0000000  2
     90     89     92     94     1  0.0000000  4.8116000  1
     90     89     92     94     1  180.0000771  1.5899200  3
     90     89    126    127     1  0.0000000  0.6276000  3
     90     89    126    128     1  0.0000000  0.6276000  3
     90     89    126    129     1  0.0000000  0.6694400  3
     89     92     94     95     1  180.0000771  27.8236000  2
     89    126    129    130     1  0.0000000  0.6694400  3
     89    126    129    131     1  0.0000000  0.6694400  3
     25     29     27     28     4  180.0000771  4.6024000  2
     27     22     25     26     4  180.0000771  4.6024000  2
     18     22     20     21     4  180.0000771  4.6024000  2
     20     15     18     19     4  180.0000771  4.6024000  2
     11     15     13     14     4  180.0000771  4.6024000  2
     13      8     11     12     4  180.0000771  4.6024000  2
      4      8      6      7     4  180.0000771  4.6024000  2
      6      1      4      5     4  180.0000771  4.6024000  2
    113    117    115    116     4  180.0000771  4.6024000  2
    115    110    113    114     4  180.0000771  4.6024000  2
    106    110    108    109     4  180.0000771  4.6024000  2
    108    103    106    107     4  180.0000771  4.6024000  2
     99    103    101    102     4  180.0000771  4.6024000  2
    101     96     99    100     4  180.0000771  4.6024000  2
     92     96     94     95     4  180.0000771  4.6024000  2
     94     89     92     93     4  180.0000771  4.6024000  2
