; Exact Amber Lipid21 v1.0 topology converted by ParmEd
; Explicit [pairs] preserve Lipid21-specific 1-4 scaling.

[ moleculetype ]
; Name nrexcl
DAPG 3

[ atoms ]
; nr type resnr residue atom cgnr charge mass
1 L21_cD 1 DAPG C16X 1 0.03910000 12.010000
2 L21_hL 1 DAPG H16X 2 0.02884800 1.008000
3 L21_hL 1 DAPG H16Y 3 0.02884800 1.008000
4 L21_cB 1 DAPG C15X 4 -0.24414900 12.010000
5 L21_hB 1 DAPG H15X 5 0.13279300 1.008000
6 L21_cB 1 DAPG C14X 6 -0.22476900 12.010000
7 L21_hB 1 DAPG H14X 7 0.12961600 1.008000
8 L21_cD 1 DAPG C13X 8 0.05819700 12.010000
9 L21_hL 1 DAPG H13X 9 0.06135000 1.008000
10 L21_hL 1 DAPG H13Y 10 0.06135000 1.008000
11 L21_cB 1 DAPG C12X 11 -0.22016400 12.010000
12 L21_hB 1 DAPG H12X 12 0.13198600 1.008000
13 L21_cB 1 DAPG C11X 13 -0.22870400 12.010000
14 L21_hB 1 DAPG H11X 14 0.13134100 1.008000
15 L21_cD 1 DAPG C10X 15 0.09540600 12.010000
16 L21_hL 1 DAPG H10X 16 0.05114000 1.008000
17 L21_hL 1 DAPG H10Y 17 0.05114000 1.008000
18 L21_cB 1 DAPG C9X 18 -0.22869400 12.010000
19 L21_hB 1 DAPG H9X 19 0.13216700 1.008000
20 L21_cB 1 DAPG C8X 20 -0.22852700 12.010000
21 L21_hB 1 DAPG H8X 21 0.13473500 1.008000
22 L21_cD 1 DAPG C7X 22 0.05578400 12.010000
23 L21_hL 1 DAPG H7X 23 0.06277500 1.008000
24 L21_hL 1 DAPG H7Y 24 0.06277500 1.008000
25 L21_cB 1 DAPG C6X 25 -0.20678600 12.010000
26 L21_hB 1 DAPG H6X 26 0.12985800 1.008000
27 L21_cB 1 DAPG C5X 27 -0.26789000 12.010000
28 L21_hB 1 DAPG H5X 28 0.14357700 1.008000
29 L21_cD 1 DAPG C4X 29 0.03138200 12.010000
30 L21_hL 1 DAPG H4X 30 0.03870800 1.008000
31 L21_hL 1 DAPG H4Y 31 0.03870800 1.008000
32 L21_cD 1 DAPG C3X 32 0.02562600 12.010000
33 L21_hL 1 DAPG H3X 33 0.02511700 1.008000
34 L21_hL 1 DAPG H3Y 34 0.02511700 1.008000
35 L21_cD 1 DAPG C2X 35 -0.12393500 12.010000
36 L21_hL 1 DAPG H2X 36 0.02453500 1.008000
37 L21_hL 1 DAPG H2Y 37 0.02453500 1.008000
38 L21_cD 1 DAPG C17X 38 -0.02839800 12.010000
39 L21_hL 1 DAPG H17X 39 0.01958100 1.008000
40 L21_hL 1 DAPG H17Y 40 0.01958100 1.008000
41 L21_cD 1 DAPG C18X 41 -0.01977200 12.010000
42 L21_hL 1 DAPG H18X 42 0.01421800 1.008000
43 L21_hL 1 DAPG H18Y 43 0.01421800 1.008000
44 L21_cD 1 DAPG C19X 44 0.02495700 12.010000
45 L21_hL 1 DAPG H19X 45 0.00542600 1.008000
46 L21_hL 1 DAPG H19Y 46 0.00542600 1.008000
47 L21_cD 1 DAPG C20X 47 -0.10930200 12.010000
48 L21_hL 1 DAPG H20X 48 0.02372300 1.008000
49 L21_hL 1 DAPG H20Y 49 0.02372300 1.008000
50 L21_hL 1 DAPG H20Z 50 0.02372300 1.008000
51 L21_cC 1 DAPG C11 51 0.87700600 12.010000
52 L21_oC 1 DAPG O12 52 -0.64926500 16.000000
53 L21_oS 1 DAPG O11 53 -0.58516500 16.000000
54 L21_cA 1 DAPG C1 54 0.29511900 12.010000
55 L21_hE 1 DAPG HR 55 0.03379700 1.008000
56 L21_hE 1 DAPG HS 56 0.03379700 1.008000
57 L21_cA 1 DAPG C2 57 0.35380700 12.010000
58 L21_hE 1 DAPG HX 58 0.03748800 1.008000
59 L21_cA 1 DAPG C3 59 0.04371300 12.010000
60 L21_hE 1 DAPG HA 60 0.09104100 1.008000
61 L21_hE 1 DAPG HB 61 0.09104100 1.008000
62 L21_oT 1 DAPG O31 62 -0.54609800 16.000000
63 L21_pA 1 DAPG P31 63 1.38046400 30.970000
64 L21_oT 1 DAPG O32 64 -0.53430800 16.000000
65 L21_cA 1 DAPG C31 65 -0.05670600 12.010000
66 L21_hE 1 DAPG H1A 66 0.09335400 1.008000
67 L21_hE 1 DAPG H1B 67 0.09335400 1.008000
68 L21_cA 1 DAPG C32 68 0.33681600 12.010000
69 L21_hE 1 DAPG H2A 69 0.03004200 1.008000
70 L21_oH 1 DAPG O35 70 -0.72619200 16.000000
71 L21_hO 1 DAPG HO5A 71 0.43952300 1.008000
72 L21_cA 1 DAPG C33 72 0.19359700 12.010000
73 L21_hE 1 DAPG H3A 73 0.03471500 1.008000
74 L21_hE 1 DAPG H3B 74 0.03471500 1.008000
75 L21_oP 1 DAPG O33 75 -0.87344400 16.000000
76 L21_oP 1 DAPG O34 76 -0.87344400 16.000000
77 L21_oS 1 DAPG O21 77 -0.59913100 16.000000
78 L21_cC 1 DAPG C21 78 0.88366900 12.010000
79 L21_oC 1 DAPG O22 79 -0.65576200 16.000000
80 L21_oH 1 DAPG O36 80 -0.70087100 16.000000
81 L21_hO 1 DAPG HO6A 81 0.42332800 1.008000
82 L21_cD 1 DAPG C16Y 82 0.03910000 12.010000
83 L21_hL 1 DAPG H16U 83 0.02884800 1.008000
84 L21_hL 1 DAPG H16V 84 0.02884800 1.008000
85 L21_cB 1 DAPG C15Y 85 -0.24414900 12.010000
86 L21_hB 1 DAPG H15U 86 0.13279300 1.008000
87 L21_cB 1 DAPG C14Y 87 -0.22476900 12.010000
88 L21_hB 1 DAPG H14U 88 0.12961600 1.008000
89 L21_cD 1 DAPG C13Y 89 0.05819700 12.010000
90 L21_hL 1 DAPG H13U 90 0.06135000 1.008000
91 L21_hL 1 DAPG H13V 91 0.06135000 1.008000
92 L21_cB 1 DAPG C12Y 92 -0.22016400 12.010000
93 L21_hB 1 DAPG H12U 93 0.13198600 1.008000
94 L21_cB 1 DAPG C11Y 94 -0.22870400 12.010000
95 L21_hB 1 DAPG H11U 95 0.13134100 1.008000
96 L21_cD 1 DAPG C10Y 96 0.09540600 12.010000
97 L21_hL 1 DAPG H10U 97 0.05114000 1.008000
98 L21_hL 1 DAPG H10V 98 0.05114000 1.008000
99 L21_cB 1 DAPG C9Y 99 -0.22869400 12.010000
100 L21_hB 1 DAPG H9U 100 0.13216700 1.008000
101 L21_cB 1 DAPG C8Y 101 -0.22852700 12.010000
102 L21_hB 1 DAPG H8U 102 0.13473500 1.008000
103 L21_cD 1 DAPG C7Y 103 0.05578400 12.010000
104 L21_hL 1 DAPG H7U 104 0.06277500 1.008000
105 L21_hL 1 DAPG H7V 105 0.06277500 1.008000
106 L21_cB 1 DAPG C6Y 106 -0.20678600 12.010000
107 L21_hB 1 DAPG H6U 107 0.12985800 1.008000
108 L21_cB 1 DAPG C5Y 108 -0.26789000 12.010000
109 L21_hB 1 DAPG H5U 109 0.14357700 1.008000
110 L21_cD 1 DAPG C4Y 110 0.03138200 12.010000
111 L21_hL 1 DAPG H4U 111 0.03870800 1.008000
112 L21_hL 1 DAPG H4V 112 0.03870800 1.008000
113 L21_cD 1 DAPG C3Y 113 0.02562600 12.010000
114 L21_hL 1 DAPG H3U 114 0.02511700 1.008000
115 L21_hL 1 DAPG H3V 115 0.02511700 1.008000
116 L21_cD 1 DAPG C2Y 116 -0.12393500 12.010000
117 L21_hL 1 DAPG H2U 117 0.02453500 1.008000
118 L21_hL 1 DAPG H2V 118 0.02453500 1.008000
119 L21_cD 1 DAPG C17Y 119 -0.02839800 12.010000
120 L21_hL 1 DAPG H17U 120 0.01958100 1.008000
121 L21_hL 1 DAPG H17V 121 0.01958100 1.008000
122 L21_cD 1 DAPG C18Y 122 -0.01977200 12.010000
123 L21_hL 1 DAPG H18U 123 0.01421800 1.008000
124 L21_hL 1 DAPG H18V 124 0.01421800 1.008000
125 L21_cD 1 DAPG C19Y 125 0.02495700 12.010000
126 L21_hL 1 DAPG H19U 126 0.00542600 1.008000
127 L21_hL 1 DAPG H19V 127 0.00542600 1.008000
128 L21_cD 1 DAPG C20Y 128 -0.10930200 12.010000
129 L21_hL 1 DAPG H20U 129 0.02372300 1.008000
130 L21_hL 1 DAPG H20V 130 0.02372300 1.008000
131 L21_hL 1 DAPG H20W 131 0.02372300 1.008000

[ bonds ]
;    ai     aj funct         c0         c1         c2         c3
     44     47     1   0.15350 253634.080000
     41     44     1   0.15350 253634.080000
     38     41     1   0.15350 253634.080000
     35     51     1   0.15080 274721.440000
     32     35     1   0.15350 253634.080000
     29     32     1   0.15350 253634.080000
     27     29     1   0.15080 274721.440000
     25     27     1   0.13240 493460.960000
     22     25     1   0.15080 274721.440000
     20     22     1   0.15080 274721.440000
     18     20     1   0.13240 493460.960000
     15     18     1   0.15080 274721.440000
     13     15     1   0.15080 274721.440000
     11     13     1   0.13240 493460.960000
      8     11     1   0.15080 274721.440000
      6      8     1   0.15080 274721.440000
      4      6     1   0.13240 493460.960000
      1      4     1   0.15080 274721.440000
      1     38     1   0.15350 253634.080000
     78     79     1   0.12140 542246.400000
     78    116     1   0.15080 274721.440000
     77     78     1   0.13430 344175.840000
     72     80     1   0.14260 262838.880000
     68     70     1   0.14260 262838.880000
     68     72     1   0.15350 253634.080000
     65     68     1   0.15350 253634.080000
     64     65     1   0.14390 252295.200000
     63     64     1   0.16100 192464.000000
     63     75     1   0.14800 439320.000000
     63     76     1   0.14800 439320.000000
     62     63     1   0.16100 192464.000000
     59     62     1   0.14390 252295.200000
     57     59     1   0.15350 253634.080000
     57     77     1   0.14390 252295.200000
     54     57     1   0.15350 253634.080000
     53     54     1   0.14390 252295.200000
     51     52     1   0.12140 542246.400000
     51     53     1   0.13430 344175.840000
    125    128     1   0.15350 253634.080000
    122    125     1   0.15350 253634.080000
    119    122     1   0.15350 253634.080000
    113    116     1   0.15350 253634.080000
    110    113     1   0.15350 253634.080000
    108    110     1   0.15080 274721.440000
    106    108     1   0.13240 493460.960000
    103    106     1   0.15080 274721.440000
    101    103     1   0.15080 274721.440000
     99    101     1   0.13240 493460.960000
     96     99     1   0.15080 274721.440000
     94     96     1   0.15080 274721.440000
     92     94     1   0.13240 493460.960000
     89     92     1   0.15080 274721.440000
     87     89     1   0.15080 274721.440000
     85     87     1   0.13240 493460.960000
     82     85     1   0.15080 274721.440000
     82    119     1   0.15350 253634.080000
     47     48     1   0.10920 282252.640000
     47     49     1   0.10920 282252.640000
     47     50     1   0.10920 282252.640000
     44     45     1   0.10920 282252.640000
     44     46     1   0.10920 282252.640000
     41     42     1   0.10920 282252.640000
     41     43     1   0.10920 282252.640000
     38     39     1   0.10920 282252.640000
     38     40     1   0.10920 282252.640000
     35     36     1   0.10920 282252.640000
     35     37     1   0.10920 282252.640000
     32     33     1   0.10920 282252.640000
     32     34     1   0.10920 282252.640000
     29     30     1   0.10920 282252.640000
     29     31     1   0.10920 282252.640000
     27     28     1   0.10870 288110.240000
     25     26     1   0.10870 288110.240000
     22     23     1   0.10920 282252.640000
     22     24     1   0.10920 282252.640000
     20     21     1   0.10870 288110.240000
     18     19     1   0.10870 288110.240000
     15     16     1   0.10920 282252.640000
     15     17     1   0.10920 282252.640000
     13     14     1   0.10870 288110.240000
     11     12     1   0.10870 288110.240000
      8      9     1   0.10920 282252.640000
      8     10     1   0.10920 282252.640000
      6      7     1   0.10870 288110.240000
      4      5     1   0.10870 288110.240000
      1      2     1   0.10920 282252.640000
      1      3     1   0.10920 282252.640000
     80     81     1   0.09740 309281.280000
     72     73     1   0.10930 281081.120000
     72     74     1   0.10930 281081.120000
     70     71     1   0.09740 309281.280000
     68     69     1   0.10930 281081.120000
     65     66     1   0.10930 281081.120000
     65     67     1   0.10930 281081.120000
     59     60     1   0.10930 281081.120000
     59     61     1   0.10930 281081.120000
     57     58     1   0.10930 281081.120000
     54     55     1   0.10930 281081.120000
     54     56     1   0.10930 281081.120000
    128    129     1   0.10920 282252.640000
    128    130     1   0.10920 282252.640000
    128    131     1   0.10920 282252.640000
    125    126     1   0.10920 282252.640000
    125    127     1   0.10920 282252.640000
    122    123     1   0.10920 282252.640000
    122    124     1   0.10920 282252.640000
    119    120     1   0.10920 282252.640000
    119    121     1   0.10920 282252.640000
    116    117     1   0.10920 282252.640000
    116    118     1   0.10920 282252.640000
    113    114     1   0.10920 282252.640000
    113    115     1   0.10920 282252.640000
    110    111     1   0.10920 282252.640000
    110    112     1   0.10920 282252.640000
    108    109     1   0.10870 288110.240000
    106    107     1   0.10870 288110.240000
    103    104     1   0.10920 282252.640000
    103    105     1   0.10920 282252.640000
    101    102     1   0.10870 288110.240000
     99    100     1   0.10870 288110.240000
     96     97     1   0.10920 282252.640000
     96     98     1   0.10920 282252.640000
     94     95     1   0.10870 288110.240000
     92     93     1   0.10870 288110.240000
     89     90     1   0.10920 282252.640000
     89     91     1   0.10920 282252.640000
     87     88     1   0.10870 288110.240000
     85     86     1   0.10870 288110.240000
     82     83     1   0.10920 282252.640000
     82     84     1   0.10920 282252.640000


[ pairs ]
;    ai     aj funct         c0         c1         c2         c3
     38     47     1
     35     54     1
     32     52     1
     32     53     1
     29     51     1
     27     35     1
     25     32     1
     22     29     1
     20     27     1
     18     25     1
     15     22     1
     13     20     1
     11     18     1
      8     15     1
     38      6     1
      6     13     1
      4     41     1
      4     11     1
      1      8     1
      1     44     1
     79    113     1
     78    110     1
     77    113     1
     70     80     1
     65     75     1
     65     76     1
     65     80     1
     64     70     1
     64     72     1
     63     68     1
     62     77     1
     62     65     1
     59     78     1
     59     64     1
     59     75     1
     59     76     1
     57     63     1
     57     79     1
     57    116     1
     54     62     1
     54     78     1
     53     59     1
     53     77     1
     52     54     1
     51     57     1
    119    128     1
    108    116     1
    106    113     1
    103    110     1
    101    108     1
     99    106     1
     96    103     1
     94    101     1
     92     99     1
     89     96     1
     87    119     1
     87     94     1
     85    122     1
     85     92     1
     82     89     1
     82    125     1
     46     48     1
     46     49     1
     46     50     1
     45     48     1
     45     49     1
     45     50     1
     43     45     1
     43     46     1
     43     47     1
     42     45     1
     42     46     1
     42     47     1
     41     48     1
     41     49     1
     41     50     1
     40     42     1
     40     43     1
     40     44     1
     39     42     1
     39     43     1
     39     44     1
     38     45     1
     38     46     1
     37     52     1
     37     53     1
     36     52     1
     36     53     1
     34     36     1
     34     37     1
     34     51     1
     33     36     1
     33     37     1
     33     51     1
     31     33     1
     31     34     1
     31     35     1
     30     33     1
     30     34     1
     30     35     1
     29     36     1
     29     37     1
     28     30     1
     28     31     1
     28     32     1
     27     33     1
     27     34     1
     26     28     1
     26     29     1
     25     30     1
     25     31     1
     24     26     1
     24     27     1
     23     26     1
     23     27     1
     22     28     1
     21     23     1
     21     24     1
     21     25     1
     20     26     1
     19     21     1
     19     22     1
     18     23     1
     18     24     1
     17     19     1
     17     20     1
     16     19     1
     16     20     1
     15     21     1
     14     16     1
     14     17     1
     14     18     1
     13     19     1
     12     14     1
     12     15     1
     11     16     1
     11     17     1
     10     12     1
     10     13     1
      9     12     1
      9     13     1
      8     14     1
      7      9     1
      7     10     1
      7     11     1
      6     12     1
     38      5     1
      5      7     1
      5      8     1
      4     39     1
      4     40     1
      4      9     1
      4     10     1
      3      5     1
      3      6     1
      3     39     1
      3     40     1
      3     41     1
      2      5     1
      2      6     1
      2     39     1
      2     40     1
      2     41     1
      1      7     1
      1     42     1
      1     43     1
     79    117     1
     79    118     1
     78    114     1
     78    115     1
     77    117     1
     77    118     1
     74     81     1
     73     81     1
     71     72     1
     70     73     1
     70     74     1
     69     71     1
     69     73     1
     69     74     1
     69     80     1
     68     81     1
     67     69     1
     67     70     1
     67     72     1
     66     69     1
     66     70     1
     66     72     1
     65     71     1
     65     73     1
     65     74     1
     64     69     1
     63     66     1
     63     67     1
     61     77     1
     61     63     1
     60     77     1
     60     63     1
     58     60     1
     58     61     1
     58     62     1
     58     78     1
     56     58     1
     56     59     1
     56     77     1
     55     58     1
     55     59     1
     55     77     1
     54     60     1
     54     61     1
     53     58     1
     51     55     1
     51     56     1
    127    129     1
    127    130     1
    127    131     1
    126    129     1
    126    130     1
    126    131     1
    124    126     1
    124    127     1
    124    128     1
    123    126     1
    123    127     1
    123    128     1
    122    129     1
    122    130     1
    122    131     1
    121    123     1
    121    124     1
    121    125     1
    120    123     1
    120    124     1
    120    125     1
    119    126     1
    119    127     1
    115    117     1
    115    118     1
    114    117     1
    114    118     1
    112    114     1
    112    115     1
    112    116     1
    111    114     1
    111    115     1
    111    116     1
    110    117     1
    110    118     1
    109    111     1
    109    112     1
    109    113     1
    108    114     1
    108    115     1
    107    109     1
    107    110     1
    106    111     1
    106    112     1
    105    107     1
    105    108     1
    104    107     1
    104    108     1
    103    109     1
    102    104     1
    102    105     1
    102    106     1
    101    107     1
    100    102     1
    100    103     1
     99    104     1
     99    105     1
     98    100     1
     98    101     1
     97    100     1
     97    101     1
     96    102     1
     95     97     1
     95     98     1
     95     99     1
     94    100     1
     93     95     1
     93     96     1
     92     97     1
     92     98     1
     91     93     1
     91     94     1
     90     93     1
     90     94     1
     89     95     1
     88     90     1
     88     91     1
     88     92     1
     87     93     1
     86    119     1
     86     88     1
     86     89     1
     85    120     1
     85    121     1
     85     90     1
     85     91     1
     84     86     1
     84     87     1
     84    120     1
     84    121     1
     84    122     1
     83     86     1
     83     87     1
     83    120     1
     83    121     1
     83    122     1
     82     88     1
     82    123     1
     82    124     1


[ angles ]
;    ai     aj     ak funct         c0         c1         c2         c3
     41     44     47     1   112.0500483 394.969600
     38     41     44     1   112.0500483 394.969600
     35     51     52     1   123.1100526 569.275040
     35     51     53     1   111.9600481 579.567680
     32     35     51     1   110.5300474 533.794720
     29     32     35     1   112.0500483 394.969600
     27     29     32     1   111.4400476 531.619040
     25     27     29     1   123.4200531 538.313440
     22     25     27     1   123.4200531 538.313440
     20     22     25     1   112.0800478 534.966240
     18     20     22     1   123.4200531 538.313440
     15     18     20     1   123.4200531 538.313440
     13     15     18     1   112.0800478 534.966240
     11     13     15     1   123.4200531 538.313440
      8     11     13     1   123.4200531 538.313440
      6      8     11     1   112.0800478 534.966240
      4      1     38     1   111.4400476 531.619040
      4      6      8     1   123.4200531 538.313440
      1      4      6     1   123.4200531 538.313440
      1     38     41     1   112.0500483 394.969600
     79     78    116     1   123.1100526 569.275040
     78    116    113     1   110.5300474 533.794720
     77     78     79     1   123.3300529 635.382240
     77     78    116     1   111.9600481 579.567680
     75     63     76     1   119.9000514 1171.520000
     70     68     72     1   109.4300470 566.680960
     68     72     80     1   109.4300470 566.680960
     65     68     70     1   109.4300470 566.680960
     65     68     72     1   110.6300475 528.941280
     64     63     75     1   108.2300464 836.800000
     64     63     76     1   108.2300464 836.800000
     64     65     68     1   108.4200467 567.183040
     63     64     65     1   120.5000516 836.800000
     62     63     64     1   102.6000440 753.120000
     62     63     75     1   108.2300464 836.800000
     62     63     76     1   108.2300464 836.800000
     59     57     77     1   108.4200467 567.183040
     59     62     63     1   120.5000516 836.800000
     57     59     62     1   108.4200467 567.183040
     57     77     78     1   115.1400492 532.455840
     54     57     59     1   110.6300475 528.941280
     54     57     77     1   108.4200467 567.183040
     53     54     57     1   108.4200467 567.183040
     52     51     53     1   123.3300529 635.382240
     51     53     54     1   115.1400492 532.455840
    122    125    128     1   112.0500483 394.969600
    119    122    125     1   112.0500483 394.969600
    110    113    116     1   112.0500483 394.969600
    108    110    113     1   111.4400476 531.619040
    106    108    110     1   123.4200531 538.313440
    103    106    108     1   123.4200531 538.313440
    101    103    106     1   112.0800478 534.966240
     99    101    103     1   123.4200531 538.313440
     96     99    101     1   123.4200531 538.313440
     94     96     99     1   112.0800478 534.966240
     92     94     96     1   123.4200531 538.313440
     89     92     94     1   123.4200531 538.313440
     87     89     92     1   112.0800478 534.966240
     85     82    119     1   111.4400476 531.619040
     85     87     89     1   123.4200531 538.313440
     82     85     87     1   123.4200531 538.313440
     82    119    122     1   112.0500483 394.969600
     49     47     50     1   108.3500467 329.950240
     48     47     49     1   108.3500467 329.950240
     48     47     50     1   108.3500467 329.950240
     46     44     47     1   110.0500475 388.024160
     45     44     46     1   108.3500467 329.950240
     45     44     47     1   110.0500475 388.024160
     44     47     48     1   110.0500475 388.024160
     44     47     49     1   110.0500475 388.024160
     44     47     50     1   110.0500475 388.024160
     43     41     44     1   110.0500475 388.024160
     42     41     43     1   108.3500467 329.950240
     42     41     44     1   110.0500475 388.024160
     41     44     45     1   110.0500475 388.024160
     41     44     46     1   110.0500475 388.024160
     40     38     41     1   110.0500475 388.024160
     39     38     40     1   108.3500467 329.950240
     39     38     41     1   110.0500475 388.024160
     38     41     42     1   110.0500475 388.024160
     38     41     43     1   110.0500475 388.024160
     37     35     51     1   109.6800468 394.969600
     36     35     37     1   108.3500467 329.950240
     36     35     51     1   109.6800468 394.969600
     34     32     35     1   110.0500475 388.024160
     33     32     34     1   108.3500467 329.950240
     33     32     35     1   110.0500475 388.024160
     32     35     36     1   110.0500475 388.024160
     32     35     37     1   110.0500475 388.024160
     31     29     32     1   110.0500475 388.024160
     30     29     31     1   108.3500467 329.950240
     30     29     32     1   110.0500475 388.024160
     29     32     33     1   110.0500475 388.024160
     29     32     34     1   110.0500475 388.024160
     28     27     29     1   117.3000503 382.082880
     27     29     30     1   110.4900475 393.547040
     27     29     31     1   110.4900475 393.547040
     26     25     27     1   120.9400517 418.734720
     25     27     28     1   120.9400517 418.734720
     24     22     25     1   110.4900475 393.547040
     23     22     24     1   108.3500467 329.950240
     23     22     25     1   110.4900475 393.547040
     22     25     26     1   117.3000503 382.082880
     21     20     22     1   117.3000503 382.082880
     20     22     23     1   110.4900475 393.547040
     20     22     24     1   110.4900475 393.547040
     19     18     20     1   120.9400517 418.734720
     18     20     21     1   120.9400517 418.734720
     17     15     18     1   110.4900475 393.547040
     16     15     17     1   108.3500467 329.950240
     16     15     18     1   110.4900475 393.547040
     15     18     19     1   117.3000503 382.082880
     14     13     15     1   117.3000503 382.082880
     13     15     16     1   110.4900475 393.547040
     13     15     17     1   110.4900475 393.547040
     12     11     13     1   120.9400517 418.734720
     11     13     14     1   120.9400517 418.734720
     10      8     11     1   110.4900475 393.547040
      9      8     10     1   108.3500467 329.950240
      9      8     11     1   110.4900475 393.547040
      8     11     12     1   117.3000503 382.082880
      7      6      8     1   117.3000503 382.082880
      6      8      9     1   110.4900475 393.547040
      6      8     10     1   110.4900475 393.547040
      5      4      6     1   120.9400517 418.734720
      4      6      7     1   120.9400517 418.734720
      3      1      4     1   110.4900475 393.547040
      3      1     38     1   110.0500475 388.024160
      2      1      3     1   108.3500467 329.950240
      2      1      4     1   110.4900475 393.547040
      2      1     38     1   110.0500475 388.024160
      1      4      5     1   117.3000503 382.082880
      1     38     39     1   110.0500475 388.024160
      1     38     40     1   110.0500475 388.024160
     78    116    117     1   109.6800468 394.969600
     78    116    118     1   109.6800468 394.969600
     74     72     80     1   109.8800469 426.516960
     73     72     74     1   109.5500472 327.858240
     73     72     80     1   109.8800469 426.516960
     72     80     81     1   108.1600465 394.049120
     69     68     70     1   109.8800469 426.516960
     69     68     72     1   110.0700471 387.940480
     68     70     71     1   108.1600465 394.049120
     68     72     73     1   110.0700471 387.940480
     68     72     74     1   110.0700471 387.940480
     67     65     68     1   110.0700471 387.940480
     66     65     67     1   109.5500472 327.858240
     66     65     68     1   110.0700471 387.940480
     65     68     69     1   110.0700471 387.940480
     64     65     66     1   108.8200469 425.429120
     64     65     67     1   108.8200469 425.429120
     61     59     62     1   108.8200469 425.429120
     60     59     61     1   109.5500472 327.858240
     60     59     62     1   108.8200469 425.429120
     58     57     59     1   110.0700471 387.940480
     58     57     77     1   108.8200469 425.429120
     57     59     60     1   110.0700471 387.940480
     57     59     61     1   110.0700471 387.940480
     56     54     57     1   110.0700471 387.940480
     55     54     56     1   109.5500472 327.858240
     55     54     57     1   110.0700471 387.940480
     54     57     58     1   110.0700471 387.940480
     53     54     55     1   108.8200469 425.429120
     53     54     56     1   108.8200469 425.429120
    130    128    131     1   108.3500467 329.950240
    129    128    130     1   108.3500467 329.950240
    129    128    131     1   108.3500467 329.950240
    127    125    128     1   110.0500475 388.024160
    126    125    127     1   108.3500467 329.950240
    126    125    128     1   110.0500475 388.024160
    125    128    129     1   110.0500475 388.024160
    125    128    130     1   110.0500475 388.024160
    125    128    131     1   110.0500475 388.024160
    124    122    125     1   110.0500475 388.024160
    123    122    124     1   108.3500467 329.950240
    123    122    125     1   110.0500475 388.024160
    122    125    126     1   110.0500475 388.024160
    122    125    127     1   110.0500475 388.024160
    121    119    122     1   110.0500475 388.024160
    120    119    121     1   108.3500467 329.950240
    120    119    122     1   110.0500475 388.024160
    119    122    123     1   110.0500475 388.024160
    119    122    124     1   110.0500475 388.024160
    117    116    118     1   108.3500467 329.950240
    115    113    116     1   110.0500475 388.024160
    114    113    115     1   108.3500467 329.950240
    114    113    116     1   110.0500475 388.024160
    113    116    117     1   110.0500475 388.024160
    113    116    118     1   110.0500475 388.024160
    112    110    113     1   110.0500475 388.024160
    111    110    112     1   108.3500467 329.950240
    111    110    113     1   110.0500475 388.024160
    110    113    114     1   110.0500475 388.024160
    110    113    115     1   110.0500475 388.024160
    109    108    110     1   117.3000503 382.082880
    108    110    111     1   110.4900475 393.547040
    108    110    112     1   110.4900475 393.547040
    107    106    108     1   120.9400517 418.734720
    106    108    109     1   120.9400517 418.734720
    105    103    106     1   110.4900475 393.547040
    104    103    105     1   108.3500467 329.950240
    104    103    106     1   110.4900475 393.547040
    103    106    107     1   117.3000503 382.082880
    102    101    103     1   117.3000503 382.082880
    101    103    104     1   110.4900475 393.547040
    101    103    105     1   110.4900475 393.547040
    100     99    101     1   120.9400517 418.734720
     99    101    102     1   120.9400517 418.734720
     98     96     99     1   110.4900475 393.547040
     97     96     98     1   108.3500467 329.950240
     97     96     99     1   110.4900475 393.547040
     96     99    100     1   117.3000503 382.082880
     95     94     96     1   117.3000503 382.082880
     94     96     97     1   110.4900475 393.547040
     94     96     98     1   110.4900475 393.547040
     93     92     94     1   120.9400517 418.734720
     92     94     95     1   120.9400517 418.734720
     91     89     92     1   110.4900475 393.547040
     90     89     91     1   108.3500467 329.950240
     90     89     92     1   110.4900475 393.547040
     89     92     93     1   117.3000503 382.082880
     88     87     89     1   117.3000503 382.082880
     87     89     90     1   110.4900475 393.547040
     87     89     91     1   110.4900475 393.547040
     86     85     87     1   120.9400517 418.734720
     85     87     88     1   120.9400517 418.734720
     84     82     85     1   110.4900475 393.547040
     84     82    119     1   110.0500475 388.024160
     83     82     84     1   108.3500467 329.950240
     83     82     85     1   110.4900475 393.547040
     83     82    119     1   110.0500475 388.024160
     82     85     86     1   117.3000503 382.082880
     82    119    120     1   110.0500475 388.024160
     82    119    121     1   110.0500475 388.024160


[ dihedrals ]
;    ai     aj     ak     al funct         c0         c1         c2         c3         c4         c5
     38     41     44     47     1  0.0000000  0.4184000  1
     38     41     44     47     1  0.0000000  0.4184000  2
     38     41     44     47     1  0.0000000  1.2552000  3
     38     41     44     47     1  0.0000000  0.4184000  4
     38     41     44     47     1  0.0000000  0.4184000  5
     35     51     53     54     1  180.0000771  11.2968000  2
     32     35     51     52     1  180.0000771  0.0000000  2
     32     35     51     53     1  180.0000771  0.0000000  2
     29     32     35     51     1  0.0000000  0.6527040  3
     27     29     32     35     1  0.0000000  0.0000000  1
     27     29     32     35     1  0.0000000  0.0000000  2
     27     29     32     35     1  0.0000000  2.0920000  3
     27     29     32     35     1  0.0000000  0.0000000  4
     27     29     32     35     1  0.0000000  0.4184000  5
     25     27     29     32     1  0.0000000  2.5104000  1
     25     27     29     32     1  180.0000771  1.6736000  2
     25     27     29     32     1  180.0000771  1.6736000  3
     25     27     29     32     1  180.0000771  0.8368000  4
     25     27     29     32     1  180.0000771  0.8368000  5
     22     25     27     29     1  180.0000771  7.1128000  1
     22     25     27     29     1  180.0000771  13.8072000  2
     22     25     27     29     1  0.0000000  2.5104000  3
     22     25     27     29     1  0.0000000  0.0000000  4
     22     25     27     29     1  0.0000000  0.0000000  5
     20     22     25     27     1  0.0000000  0.0000000  1
     20     22     25     27     1  0.0000000  0.0000000  2
     20     22     25     27     1  0.0000000  0.0000000  3
     20     22     25     27     1  0.0000000  0.0000000  4
     20     22     25     27     1  0.0000000  0.0000000  5
     18     20     22     25     1  0.0000000  0.0000000  1
     18     20     22     25     1  0.0000000  0.0000000  2
     18     20     22     25     1  0.0000000  0.0000000  3
     18     20     22     25     1  0.0000000  0.0000000  4
     18     20     22     25     1  0.0000000  0.0000000  5
     15     18     20     22     1  180.0000771  7.1128000  1
     15     18     20     22     1  180.0000771  13.8072000  2
     15     18     20     22     1  0.0000000  2.5104000  3
     15     18     20     22     1  0.0000000  0.0000000  4
     15     18     20     22     1  0.0000000  0.0000000  5
     13     15     18     20     1  0.0000000  0.0000000  1
     13     15     18     20     1  0.0000000  0.0000000  2
     13     15     18     20     1  0.0000000  0.0000000  3
     13     15     18     20     1  0.0000000  0.0000000  4
     13     15     18     20     1  0.0000000  0.0000000  5
     11     13     15     18     1  0.0000000  0.0000000  1
     11     13     15     18     1  0.0000000  0.0000000  2
     11     13     15     18     1  0.0000000  0.0000000  3
     11     13     15     18     1  0.0000000  0.0000000  4
     11     13     15     18     1  0.0000000  0.0000000  5
      8     11     13     15     1  180.0000771  7.1128000  1
      8     11     13     15     1  180.0000771  13.8072000  2
      8     11     13     15     1  0.0000000  2.5104000  3
      8     11     13     15     1  0.0000000  0.0000000  4
      8     11     13     15     1  0.0000000  0.0000000  5
     38      1      4      6     1  0.0000000  2.5104000  1
     38      1      4      6     1  180.0000771  1.6736000  2
     38      1      4      6     1  180.0000771  1.6736000  3
     38      1      4      6     1  180.0000771  0.8368000  4
     38      1      4      6     1  180.0000771  0.8368000  5
      6      8     11     13     1  0.0000000  0.0000000  1
      6      8     11     13     1  0.0000000  0.0000000  2
      6      8     11     13     1  0.0000000  0.0000000  3
      6      8     11     13     1  0.0000000  0.0000000  4
      6      8     11     13     1  0.0000000  0.0000000  5
      4      1     38     41     1  0.0000000  0.0000000  1
      4      1     38     41     1  0.0000000  0.0000000  2
      4      1     38     41     1  0.0000000  2.0920000  3
      4      1     38     41     1  0.0000000  0.0000000  4
      4      1     38     41     1  0.0000000  0.4184000  5
      4      6      8     11     1  0.0000000  0.0000000  1
      4      6      8     11     1  0.0000000  0.0000000  2
      4      6      8     11     1  0.0000000  0.0000000  3
      4      6      8     11     1  0.0000000  0.0000000  4
      4      6      8     11     1  0.0000000  0.0000000  5
      1      4      6      8     1  180.0000771  7.1128000  1
      1      4      6      8     1  180.0000771  13.8072000  2
      1      4      6      8     1  0.0000000  2.5104000  3
      1      4      6      8     1  0.0000000  0.0000000  4
      1      4      6      8     1  0.0000000  0.0000000  5
      1     38     41     44     1  0.0000000  0.4184000  1
      1     38     41     44     1  0.0000000  0.4184000  2
      1     38     41     44     1  0.0000000  1.2552000  3
      1     38     41     44     1  0.0000000  0.4184000  4
      1     38     41     44     1  0.0000000  0.4184000  5
     79     78    116    113     1  180.0000771  0.0000000  2
     78    116    113    110     1  0.0000000  0.6527040  3
     77     78    116    113     1  180.0000771  0.0000000  2
     70     68     72     80     1  0.0000000  4.9162000  2
     70     68     72     80     1  0.0000000  0.6024960  3
     65     64     63     75     1  0.0000000  0.0000000  1
     65     64     63     75     1  0.0000000  0.8368000  2
     65     64     63     75     1  0.0000000  0.0000000  3
     65     64     63     75     1  0.0000000  0.0000000  4
     65     64     63     75     1  0.0000000  0.0000000  5
     65     64     63     76     1  0.0000000  0.0000000  1
     65     64     63     76     1  0.0000000  0.8368000  2
     65     64     63     76     1  0.0000000  0.0000000  3
     65     64     63     76     1  0.0000000  0.0000000  4
     65     64     63     76     1  0.0000000  0.0000000  5
     65     68     72     80     1  0.0000000  0.6510304  3
     64     65     68     70     1  0.0000000  4.9162000  2
     64     65     68     70     1  0.0000000  0.6024960  3
     64     65     68     72     1  180.0000771  3.3472000  1
     64     65     68     72     1  120.0000514  0.8368000  2
     64     65     68     72     1  60.0000257  1.6736000  3
     63     64     65     68     1  180.0000771  -3.3472000  2
     63     64     65     68     1  0.0000000  0.0000000  3
     62     59     57     77     1  0.0000000  0.0000000  1
     62     59     57     77     1  0.0000000  0.0000000  2
     62     59     57     77     1  0.0000000  0.0000000  3
     62     59     57     77     1  0.0000000  0.0000000  4
     62     59     57     77     1  0.0000000  0.0000000  5
     62     63     64     65     1  0.0000000  9.6232000  2
     62     63     64     65     1  0.0000000  2.5104000  3
     59     57     77     78     1  0.0000000  -0.4184000  1
     59     57     77     78     1  240.0001029  -1.2552000  2
     59     57     77     78     1  300.0001286  -0.8368000  3
     59     62     63     64     1  0.0000000  9.6232000  2
     59     62     63     64     1  0.0000000  2.5104000  3
     59     62     63     75     1  0.0000000  0.0000000  1
     59     62     63     75     1  0.0000000  0.8368000  2
     59     62     63     75     1  0.0000000  0.0000000  3
     59     62     63     75     1  0.0000000  0.0000000  4
     59     62     63     75     1  0.0000000  0.0000000  5
     59     62     63     76     1  0.0000000  0.0000000  1
     59     62     63     76     1  0.0000000  0.8368000  2
     59     62     63     76     1  0.0000000  0.0000000  3
     59     62     63     76     1  0.0000000  0.0000000  4
     59     62     63     76     1  0.0000000  0.0000000  5
     57     59     62     63     1  180.0000771  -3.3472000  2
     57     59     62     63     1  0.0000000  0.0000000  3
     57     77     78     79     1  180.0000771  5.8576000  1
     57     77     78     79     1  180.0000771  11.2968000  2
     57     77     78    116     1  180.0000771  11.2968000  2
     54     57     59     62     1  180.0000771  3.3472000  1
     54     57     59     62     1  120.0000514  0.8368000  2
     54     57     59     62     1  60.0000257  1.6736000  3
     54     57     77     78     1  0.0000000  -0.4184000  1
     54     57     77     78     1  240.0001029  -1.2552000  2
     54     57     77     78     1  300.0001286  -0.8368000  3
     53     54     57     59     1  0.0000000  0.0000000  1
     53     54     57     59     1  0.0000000  0.0000000  2
     53     54     57     59     1  0.0000000  0.0000000  3
     53     54     57     59     1  0.0000000  0.0000000  4
     53     54     57     59     1  0.0000000  0.0000000  5
     53     54     57     77     1  180.0000771  -0.4184000  1
     53     54     57     77     1  0.0000000  1.2552000  2
     53     54     57     77     1  0.0000000  4.1840000  3
     52     51     53     54     1  180.0000771  5.8576000  1
     52     51     53     54     1  180.0000771  11.2968000  2
     51     53     54     57     1  0.0000000  -0.4184000  1
     51     53     54     57     1  240.0001029  -1.2552000  2
     51     53     54     57     1  300.0001286  -0.8368000  3
    119    122    125    128     1  0.0000000  0.4184000  1
    119    122    125    128     1  0.0000000  0.4184000  2
    119    122    125    128     1  0.0000000  1.2552000  3
    119    122    125    128     1  0.0000000  0.4184000  4
    119    122    125    128     1  0.0000000  0.4184000  5
    108    110    113    116     1  0.0000000  0.0000000  1
    108    110    113    116     1  0.0000000  0.0000000  2
    108    110    113    116     1  0.0000000  2.0920000  3
    108    110    113    116     1  0.0000000  0.0000000  4
    108    110    113    116     1  0.0000000  0.4184000  5
    106    108    110    113     1  0.0000000  2.5104000  1
    106    108    110    113     1  180.0000771  1.6736000  2
    106    108    110    113     1  180.0000771  1.6736000  3
    106    108    110    113     1  180.0000771  0.8368000  4
    106    108    110    113     1  180.0000771  0.8368000  5
    103    106    108    110     1  180.0000771  7.1128000  1
    103    106    108    110     1  180.0000771  13.8072000  2
    103    106    108    110     1  0.0000000  2.5104000  3
    103    106    108    110     1  0.0000000  0.0000000  4
    103    106    108    110     1  0.0000000  0.0000000  5
    101    103    106    108     1  0.0000000  0.0000000  1
    101    103    106    108     1  0.0000000  0.0000000  2
    101    103    106    108     1  0.0000000  0.0000000  3
    101    103    106    108     1  0.0000000  0.0000000  4
    101    103    106    108     1  0.0000000  0.0000000  5
     99    101    103    106     1  0.0000000  0.0000000  1
     99    101    103    106     1  0.0000000  0.0000000  2
     99    101    103    106     1  0.0000000  0.0000000  3
     99    101    103    106     1  0.0000000  0.0000000  4
     99    101    103    106     1  0.0000000  0.0000000  5
     96     99    101    103     1  180.0000771  7.1128000  1
     96     99    101    103     1  180.0000771  13.8072000  2
     96     99    101    103     1  0.0000000  2.5104000  3
     96     99    101    103     1  0.0000000  0.0000000  4
     96     99    101    103     1  0.0000000  0.0000000  5
     94     96     99    101     1  0.0000000  0.0000000  1
     94     96     99    101     1  0.0000000  0.0000000  2
     94     96     99    101     1  0.0000000  0.0000000  3
     94     96     99    101     1  0.0000000  0.0000000  4
     94     96     99    101     1  0.0000000  0.0000000  5
     92     94     96     99     1  0.0000000  0.0000000  1
     92     94     96     99     1  0.0000000  0.0000000  2
     92     94     96     99     1  0.0000000  0.0000000  3
     92     94     96     99     1  0.0000000  0.0000000  4
     92     94     96     99     1  0.0000000  0.0000000  5
     89     92     94     96     1  180.0000771  7.1128000  1
     89     92     94     96     1  180.0000771  13.8072000  2
     89     92     94     96     1  0.0000000  2.5104000  3
     89     92     94     96     1  0.0000000  0.0000000  4
     89     92     94     96     1  0.0000000  0.0000000  5
     87     85     82    119     1  0.0000000  2.5104000  1
     87     85     82    119     1  180.0000771  1.6736000  2
     87     85     82    119     1  180.0000771  1.6736000  3
     87     85     82    119     1  180.0000771  0.8368000  4
     87     85     82    119     1  180.0000771  0.8368000  5
     87     89     92     94     1  0.0000000  0.0000000  1
     87     89     92     94     1  0.0000000  0.0000000  2
     87     89     92     94     1  0.0000000  0.0000000  3
     87     89     92     94     1  0.0000000  0.0000000  4
     87     89     92     94     1  0.0000000  0.0000000  5
     85     82    119    122     1  0.0000000  0.0000000  1
     85     82    119    122     1  0.0000000  0.0000000  2
     85     82    119    122     1  0.0000000  2.0920000  3
     85     82    119    122     1  0.0000000  0.0000000  4
     85     82    119    122     1  0.0000000  0.4184000  5
     85     87     89     92     1  0.0000000  0.0000000  1
     85     87     89     92     1  0.0000000  0.0000000  2
     85     87     89     92     1  0.0000000  0.0000000  3
     85     87     89     92     1  0.0000000  0.0000000  4
     85     87     89     92     1  0.0000000  0.0000000  5
     82     85     87     89     1  180.0000771  7.1128000  1
     82     85     87     89     1  180.0000771  13.8072000  2
     82     85     87     89     1  0.0000000  2.5104000  3
     82     85     87     89     1  0.0000000  0.0000000  4
     82     85     87     89     1  0.0000000  0.0000000  5
     82    119    122    125     1  0.0000000  0.4184000  1
     82    119    122    125     1  0.0000000  0.4184000  2
     82    119    122    125     1  0.0000000  1.2552000  3
     82    119    122    125     1  0.0000000  0.4184000  4
     82    119    122    125     1  0.0000000  0.4184000  5
    116     79     78     77     4  180.0000771  43.9320000  2
     35     52     51     53     4  180.0000771  43.9320000  2
     46     44     47     48     1  0.0000000  0.6276000  3
     46     44     47     49     1  0.0000000  0.6276000  3
     46     44     47     50     1  0.0000000  0.6276000  3
     45     44     47     48     1  0.0000000  0.6276000  3
     45     44     47     49     1  0.0000000  0.6276000  3
     45     44     47     50     1  0.0000000  0.6276000  3
     43     41     44     45     1  0.0000000  0.6276000  3
     43     41     44     46     1  0.0000000  0.6276000  3
     43     41     44     47     1  0.0000000  0.6694400  3
     42     41     44     45     1  0.0000000  0.6276000  3
     42     41     44     46     1  0.0000000  0.6276000  3
     42     41     44     47     1  0.0000000  0.6694400  3
     41     44     47     48     1  0.0000000  0.6694400  3
     41     44     47     49     1  0.0000000  0.6694400  3
     41     44     47     50     1  0.0000000  0.6694400  3
     40     38     41     42     1  0.0000000  0.6276000  3
     40     38     41     43     1  0.0000000  0.6276000  3
     40     38     41     44     1  0.0000000  0.6694400  3
     39     38     41     42     1  0.0000000  0.6276000  3
     39     38     41     43     1  0.0000000  0.6276000  3
     39     38     41     44     1  0.0000000  0.6694400  3
     38     41     44     45     1  0.0000000  0.6694400  3
     38     41     44     46     1  0.0000000  0.6694400  3
     37     35     51     52     1  0.0000000  3.3472000  1
     37     35     51     52     1  180.0000771  0.3347200  3
     37     35     51     53     1  180.0000771  0.0000000  2
     36     35     51     52     1  0.0000000  3.3472000  1
     36     35     51     52     1  180.0000771  0.3347200  3
     36     35     51     53     1  180.0000771  0.0000000  2
     34     32     35     36     1  0.0000000  0.6276000  3
     34     32     35     37     1  0.0000000  0.6276000  3
     34     32     35     51     1  0.0000000  0.6527040  3
     33     32     35     36     1  0.0000000  0.6276000  3
     33     32     35     37     1  0.0000000  0.6276000  3
     33     32     35     51     1  0.0000000  0.6527040  3
     31     29     32     33     1  0.0000000  0.6276000  3
     31     29     32     34     1  0.0000000  0.6276000  3
     31     29     32     35     1  0.0000000  0.6694400  3
     30     29     32     33     1  0.0000000  0.6276000  3
     30     29     32     34     1  0.0000000  0.6276000  3
     30     29     32     35     1  0.0000000  0.6694400  3
     29     32     35     36     1  0.0000000  0.6694400  3
     29     32     35     37     1  0.0000000  0.6694400  3
     28     27     29     30     1  0.0000000  0.0000000  2
     28     27     29     31     1  0.0000000  0.0000000  2
     28     27     29     32     1  0.0000000  0.0000000  2
     27     29     32     33     1  0.0000000  0.6510304  3
     27     29     32     34     1  0.0000000  0.6510304  3
     26     25     27     28     1  180.0000771  27.8236000  2
     26     25     27     29     1  180.0000771  27.8236000  2
     25     27     29     30     1  0.0000000  4.8116000  1
     25     27     29     30     1  180.0000771  1.5899200  3
     25     27     29     31     1  0.0000000  4.8116000  1
     25     27     29     31     1  180.0000771  1.5899200  3
     24     22     25     26     1  0.0000000  0.0000000  2
     24     22     25     27     1  0.0000000  4.8116000  1
     24     22     25     27     1  180.0000771  1.5899200  3
     23     22     25     26     1  0.0000000  0.0000000  2
     23     22     25     27     1  0.0000000  4.8116000  1
     23     22     25     27     1  180.0000771  1.5899200  3
     22     25     27     28     1  180.0000771  27.8236000  2
     21     20     22     23     1  0.0000000  0.0000000  2
     21     20     22     24     1  0.0000000  0.0000000  2
     21     20     22     25     1  0.0000000  0.0000000  2
     20     22     25     26     1  0.0000000  0.0000000  2
     19     18     20     21     1  180.0000771  27.8236000  2
     19     18     20     22     1  180.0000771  27.8236000  2
     18     20     22     23     1  0.0000000  4.8116000  1
     18     20     22     23     1  180.0000771  1.5899200  3
     18     20     22     24     1  0.0000000  4.8116000  1
     18     20     22     24     1  180.0000771  1.5899200  3
     17     15     18     19     1  0.0000000  0.0000000  2
     17     15     18     20     1  0.0000000  4.8116000  1
     17     15     18     20     1  180.0000771  1.5899200  3
     16     15     18     19     1  0.0000000  0.0000000  2
     16     15     18     20     1  0.0000000  4.8116000  1
     16     15     18     20     1  180.0000771  1.5899200  3
     15     18     20     21     1  180.0000771  27.8236000  2
     14     13     15     16     1  0.0000000  0.0000000  2
     14     13     15     17     1  0.0000000  0.0000000  2
     14     13     15     18     1  0.0000000  0.0000000  2
     13     15     18     19     1  0.0000000  0.0000000  2
     12     11     13     14     1  180.0000771  27.8236000  2
     12     11     13     15     1  180.0000771  27.8236000  2
     11     13     15     16     1  0.0000000  4.8116000  1
     11     13     15     16     1  180.0000771  1.5899200  3
     11     13     15     17     1  0.0000000  4.8116000  1
     11     13     15     17     1  180.0000771  1.5899200  3
     10      8     11     12     1  0.0000000  0.0000000  2
     10      8     11     13     1  0.0000000  4.8116000  1
     10      8     11     13     1  180.0000771  1.5899200  3
      9      8     11     12     1  0.0000000  0.0000000  2
      9      8     11     13     1  0.0000000  4.8116000  1
      9      8     11     13     1  180.0000771  1.5899200  3
      8     11     13     14     1  180.0000771  27.8236000  2
      7      6      8      9     1  0.0000000  0.0000000  2
      7      6      8     10     1  0.0000000  0.0000000  2
      7      6      8     11     1  0.0000000  0.0000000  2
      6      8     11     12     1  0.0000000  0.0000000  2
     38      1      4      5     1  0.0000000  0.0000000  2
      5      4      6      7     1  180.0000771  27.8236000  2
      5      4      6      8     1  180.0000771  27.8236000  2
      4      1     38     39     1  0.0000000  0.6510304  3
      4      1     38     40     1  0.0000000  0.6510304  3
      4      6      8      9     1  0.0000000  4.8116000  1
      4      6      8      9     1  180.0000771  1.5899200  3
      4      6      8     10     1  0.0000000  4.8116000  1
      4      6      8     10     1  180.0000771  1.5899200  3
      3      1      4      5     1  0.0000000  0.0000000  2
      3      1      4      6     1  0.0000000  4.8116000  1
      3      1      4      6     1  180.0000771  1.5899200  3
      3      1     38     39     1  0.0000000  0.6276000  3
      3      1     38     40     1  0.0000000  0.6276000  3
      3      1     38     41     1  0.0000000  0.6694400  3
      2      1      4      5     1  0.0000000  0.0000000  2
      2      1      4      6     1  0.0000000  4.8116000  1
      2      1      4      6     1  180.0000771  1.5899200  3
      2      1     38     39     1  0.0000000  0.6276000  3
      2      1     38     40     1  0.0000000  0.6276000  3
      2      1     38     41     1  0.0000000  0.6694400  3
      1      4      6      7     1  180.0000771  27.8236000  2
      1     38     41     42     1  0.0000000  0.6694400  3
      1     38     41     43     1  0.0000000  0.6694400  3
     79     78    116    117     1  0.0000000  3.3472000  1
     79     78    116    117     1  180.0000771  0.3347200  3
     79     78    116    118     1  0.0000000  3.3472000  1
     79     78    116    118     1  180.0000771  0.3347200  3
     78    116    113    114     1  0.0000000  0.6527040  3
     78    116    113    115     1  0.0000000  0.6527040  3
     77     78    116    117     1  180.0000771  0.0000000  2
     77     78    116    118     1  180.0000771  0.0000000  2
     74     72     80     81     1  0.0000000  2.0920000  3
     73     72     80     81     1  0.0000000  2.0920000  3
     71     70     68     72     1  0.0000000  1.0460000  1
     71     70     68     72     1  0.0000000  0.6694400  3
     70     68     72     73     1  0.0000000  1.0460000  1
     70     68     72     73     1  0.0000000  0.0000000  3
     70     68     72     74     1  0.0000000  1.0460000  1
     70     68     72     74     1  0.0000000  0.0000000  3
     69     68     70     71     1  0.0000000  2.0920000  3
     69     68     72     73     1  0.0000000  0.6527040  3
     69     68     72     74     1  0.0000000  0.6527040  3
     69     68     72     80     1  0.0000000  1.0460000  1
     69     68     72     80     1  0.0000000  0.0000000  3
     68     72     80     81     1  0.0000000  1.0460000  1
     68     72     80     81     1  0.0000000  0.6694400  3
     67     65     68     69     1  0.0000000  0.6527040  3
     67     65     68     70     1  0.0000000  1.0460000  1
     67     65     68     70     1  0.0000000  0.0000000  3
     67     65     68     72     1  0.0000000  0.6527040  3
     66     65     68     69     1  0.0000000  0.6527040  3
     66     65     68     70     1  0.0000000  1.0460000  1
     66     65     68     70     1  0.0000000  0.0000000  3
     66     65     68     72     1  0.0000000  0.6527040  3
     65     68     70     71     1  0.0000000  1.0460000  1
     65     68     70     71     1  0.0000000  0.6694400  3
     65     68     72     73     1  0.0000000  0.6527040  3
     65     68     72     74     1  0.0000000  0.6527040  3
     64     65     68     69     1  0.0000000  1.0460000  1
     64     65     68     69     1  0.0000000  0.0000000  3
     63     64     65     66     1  0.0000000  0.0000000  1
     63     64     65     66     1  0.0000000  0.0000000  2
     63     64     65     66     1  0.0000000  1.6024720  3
     63     64     65     66     1  0.0000000  0.0000000  4
     63     64     65     66     1  0.0000000  0.0000000  5
     63     64     65     67     1  0.0000000  0.0000000  1
     63     64     65     67     1  0.0000000  0.0000000  2
     63     64     65     67     1  0.0000000  1.6024720  3
     63     64     65     67     1  0.0000000  0.0000000  4
     63     64     65     67     1  0.0000000  0.0000000  5
     61     59     57     77     1  0.0000000  1.0460000  1
     61     59     57     77     1  0.0000000  0.0000000  3
     61     59     62     63     1  0.0000000  0.0000000  1
     61     59     62     63     1  0.0000000  0.0000000  2
     61     59     62     63     1  0.0000000  1.6024720  3
     61     59     62     63     1  0.0000000  0.0000000  4
     61     59     62     63     1  0.0000000  0.0000000  5
     60     59     57     77     1  0.0000000  1.0460000  1
     60     59     57     77     1  0.0000000  0.0000000  3
     60     59     62     63     1  0.0000000  0.0000000  1
     60     59     62     63     1  0.0000000  0.0000000  2
     60     59     62     63     1  0.0000000  1.6024720  3
     60     59     62     63     1  0.0000000  0.0000000  4
     60     59     62     63     1  0.0000000  0.0000000  5
     58     57     59     60     1  0.0000000  0.6527040  3
     58     57     59     61     1  0.0000000  0.6527040  3
     58     57     59     62     1  0.0000000  1.0460000  1
     58     57     59     62     1  0.0000000  0.0000000  3
     58     57     77     78     1  0.0000000  1.6024720  3
     56     54     57     58     1  0.0000000  0.6527040  3
     56     54     57     59     1  0.0000000  0.6527040  3
     56     54     57     77     1  0.0000000  1.0460000  1
     56     54     57     77     1  0.0000000  0.0000000  3
     55     54     57     58     1  0.0000000  0.6527040  3
     55     54     57     59     1  0.0000000  0.6527040  3
     55     54     57     77     1  0.0000000  1.0460000  1
     55     54     57     77     1  0.0000000  0.0000000  3
     54     57     59     60     1  0.0000000  0.6527040  3
     54     57     59     61     1  0.0000000  0.6527040  3
     53     54     57     58     1  0.0000000  1.0460000  1
     53     54     57     58     1  0.0000000  0.0000000  3
     51     53     54     55     1  0.0000000  1.6024720  3
     51     53     54     56     1  0.0000000  1.6024720  3
    127    125    128    129     1  0.0000000  0.6276000  3
    127    125    128    130     1  0.0000000  0.6276000  3
    127    125    128    131     1  0.0000000  0.6276000  3
    126    125    128    129     1  0.0000000  0.6276000  3
    126    125    128    130     1  0.0000000  0.6276000  3
    126    125    128    131     1  0.0000000  0.6276000  3
    124    122    125    126     1  0.0000000  0.6276000  3
    124    122    125    127     1  0.0000000  0.6276000  3
    124    122    125    128     1  0.0000000  0.6694400  3
    123    122    125    126     1  0.0000000  0.6276000  3
    123    122    125    127     1  0.0000000  0.6276000  3
    123    122    125    128     1  0.0000000  0.6694400  3
    122    125    128    129     1  0.0000000  0.6694400  3
    122    125    128    130     1  0.0000000  0.6694400  3
    122    125    128    131     1  0.0000000  0.6694400  3
    121    119    122    123     1  0.0000000  0.6276000  3
    121    119    122    124     1  0.0000000  0.6276000  3
    121    119    122    125     1  0.0000000  0.6694400  3
    120    119    122    123     1  0.0000000  0.6276000  3
    120    119    122    124     1  0.0000000  0.6276000  3
    120    119    122    125     1  0.0000000  0.6694400  3
    119    122    125    126     1  0.0000000  0.6694400  3
    119    122    125    127     1  0.0000000  0.6694400  3
    115    113    116    117     1  0.0000000  0.6276000  3
    115    113    116    118     1  0.0000000  0.6276000  3
    114    113    116    117     1  0.0000000  0.6276000  3
    114    113    116    118     1  0.0000000  0.6276000  3
    112    110    113    114     1  0.0000000  0.6276000  3
    112    110    113    115     1  0.0000000  0.6276000  3
    112    110    113    116     1  0.0000000  0.6694400  3
    111    110    113    114     1  0.0000000  0.6276000  3
    111    110    113    115     1  0.0000000  0.6276000  3
    111    110    113    116     1  0.0000000  0.6694400  3
    110    113    116    117     1  0.0000000  0.6694400  3
    110    113    116    118     1  0.0000000  0.6694400  3
    109    108    110    111     1  0.0000000  0.0000000  2
    109    108    110    112     1  0.0000000  0.0000000  2
    109    108    110    113     1  0.0000000  0.0000000  2
    108    110    113    114     1  0.0000000  0.6510304  3
    108    110    113    115     1  0.0000000  0.6510304  3
    107    106    108    109     1  180.0000771  27.8236000  2
    107    106    108    110     1  180.0000771  27.8236000  2
    106    108    110    111     1  0.0000000  4.8116000  1
    106    108    110    111     1  180.0000771  1.5899200  3
    106    108    110    112     1  0.0000000  4.8116000  1
    106    108    110    112     1  180.0000771  1.5899200  3
    105    103    106    107     1  0.0000000  0.0000000  2
    105    103    106    108     1  0.0000000  4.8116000  1
    105    103    106    108     1  180.0000771  1.5899200  3
    104    103    106    107     1  0.0000000  0.0000000  2
    104    103    106    108     1  0.0000000  4.8116000  1
    104    103    106    108     1  180.0000771  1.5899200  3
    103    106    108    109     1  180.0000771  27.8236000  2
    102    101    103    104     1  0.0000000  0.0000000  2
    102    101    103    105     1  0.0000000  0.0000000  2
    102    101    103    106     1  0.0000000  0.0000000  2
    101    103    106    107     1  0.0000000  0.0000000  2
    100     99    101    102     1  180.0000771  27.8236000  2
    100     99    101    103     1  180.0000771  27.8236000  2
     99    101    103    104     1  0.0000000  4.8116000  1
     99    101    103    104     1  180.0000771  1.5899200  3
     99    101    103    105     1  0.0000000  4.8116000  1
     99    101    103    105     1  180.0000771  1.5899200  3
     98     96     99    100     1  0.0000000  0.0000000  2
     98     96     99    101     1  0.0000000  4.8116000  1
     98     96     99    101     1  180.0000771  1.5899200  3
     97     96     99    100     1  0.0000000  0.0000000  2
     97     96     99    101     1  0.0000000  4.8116000  1
     97     96     99    101     1  180.0000771  1.5899200  3
     96     99    101    102     1  180.0000771  27.8236000  2
     95     94     96     97     1  0.0000000  0.0000000  2
     95     94     96     98     1  0.0000000  0.0000000  2
     95     94     96     99     1  0.0000000  0.0000000  2
     94     96     99    100     1  0.0000000  0.0000000  2
     93     92     94     95     1  180.0000771  27.8236000  2
     93     92     94     96     1  180.0000771  27.8236000  2
     92     94     96     97     1  0.0000000  4.8116000  1
     92     94     96     97     1  180.0000771  1.5899200  3
     92     94     96     98     1  0.0000000  4.8116000  1
     92     94     96     98     1  180.0000771  1.5899200  3
     91     89     92     93     1  0.0000000  0.0000000  2
     91     89     92     94     1  0.0000000  4.8116000  1
     91     89     92     94     1  180.0000771  1.5899200  3
     90     89     92     93     1  0.0000000  0.0000000  2
     90     89     92     94     1  0.0000000  4.8116000  1
     90     89     92     94     1  180.0000771  1.5899200  3
     89     92     94     95     1  180.0000771  27.8236000  2
     88     87     89     90     1  0.0000000  0.0000000  2
     88     87     89     91     1  0.0000000  0.0000000  2
     88     87     89     92     1  0.0000000  0.0000000  2
     87     89     92     93     1  0.0000000  0.0000000  2
     86     85     82    119     1  0.0000000  0.0000000  2
     86     85     87     88     1  180.0000771  27.8236000  2
     86     85     87     89     1  180.0000771  27.8236000  2
     85     82    119    120     1  0.0000000  0.6510304  3
     85     82    119    121     1  0.0000000  0.6510304  3
     85     87     89     90     1  0.0000000  4.8116000  1
     85     87     89     90     1  180.0000771  1.5899200  3
     85     87     89     91     1  0.0000000  4.8116000  1
     85     87     89     91     1  180.0000771  1.5899200  3
     84     82     85     86     1  0.0000000  0.0000000  2
     84     82     85     87     1  0.0000000  4.8116000  1
     84     82     85     87     1  180.0000771  1.5899200  3
     84     82    119    120     1  0.0000000  0.6276000  3
     84     82    119    121     1  0.0000000  0.6276000  3
     84     82    119    122     1  0.0000000  0.6694400  3
     83     82     85     86     1  0.0000000  0.0000000  2
     83     82     85     87     1  0.0000000  4.8116000  1
     83     82     85     87     1  180.0000771  1.5899200  3
     83     82    119    120     1  0.0000000  0.6276000  3
     83     82    119    121     1  0.0000000  0.6276000  3
     83     82    119    122     1  0.0000000  0.6694400  3
     82     85     87     88     1  180.0000771  27.8236000  2
     82    119    122    123     1  0.0000000  0.6694400  3
     82    119    122    124     1  0.0000000  0.6694400  3
     25     29     27     28     4  180.0000771  4.6024000  2
     27     22     25     26     4  180.0000771  4.6024000  2
     18     22     20     21     4  180.0000771  4.6024000  2
     20     15     18     19     4  180.0000771  4.6024000  2
     11     15     13     14     4  180.0000771  4.6024000  2
     13      8     11     12     4  180.0000771  4.6024000  2
      4      8      6      7     4  180.0000771  4.6024000  2
      6      1      4      5     4  180.0000771  4.6024000  2
    106    110    108    109     4  180.0000771  4.6024000  2
    108    103    106    107     4  180.0000771  4.6024000  2
     99    103    101    102     4  180.0000771  4.6024000  2
    101     96     99    100     4  180.0000771  4.6024000  2
     92     96     94     95     4  180.0000771  4.6024000  2
     94     89     92     93     4  180.0000771  4.6024000  2
     85     89     87     88     4  180.0000771  4.6024000  2
     87     82     85     86     4  180.0000771  4.6024000  2
