; Exact Amber Lipid21 v1.0 topology converted by ParmEd
; Explicit [pairs] preserve Lipid21-specific 1-4 scaling.
; Conversion contract: amber-explicit-pairs-v2 (independent of parent defaults).

[ moleculetype ]
; Name nrexcl
DLPC 3

[ atoms ]
; nr type resnr residue atom cgnr charge mass
1 L21_hL 1 DLPC H12Z 1 0.02580900 1.008000
2 L21_cD 1 DLPC C12X 2 -0.11853400 12.010000
3 L21_hL 1 DLPC H12X 3 0.02580900 1.008000
4 L21_hL 1 DLPC H12Y 4 0.02580900 1.008000
5 L21_cD 1 DLPC C11X 5 0.02332000 12.010000
6 L21_hL 1 DLPC H11X 6 0.00827600 1.008000
7 L21_hL 1 DLPC H11Y 7 0.00827600 1.008000
8 L21_cD 1 DLPC C10X 8 -0.01957500 12.010000
9 L21_hL 1 DLPC H10X 9 0.01516300 1.008000
10 L21_hL 1 DLPC H10Y 10 0.01516300 1.008000
11 L21_cD 1 DLPC C9X 11 -0.02197500 12.010000
12 L21_hL 1 DLPC H9X 12 0.00586900 1.008000
13 L21_hL 1 DLPC H9Y 13 0.00586900 1.008000
14 L21_cD 1 DLPC C8X 14 -0.02087900 12.010000
15 L21_hL 1 DLPC H8X 15 0.01038500 1.008000
16 L21_hL 1 DLPC H8Y 16 0.01038500 1.008000
17 L21_cD 1 DLPC C7X 17 -0.01927900 12.010000
18 L21_hL 1 DLPC H7X 18 0.01120700 1.008000
19 L21_hL 1 DLPC H7Y 19 0.01120700 1.008000
20 L21_cD 1 DLPC C6X 20 -0.01963100 12.010000
21 L21_hL 1 DLPC H6X 21 0.01023600 1.008000
22 L21_hL 1 DLPC H6Y 22 0.01023600 1.008000
23 L21_cD 1 DLPC C5X 23 -0.01573500 12.010000
24 L21_hL 1 DLPC H5X 24 0.00955100 1.008000
25 L21_hL 1 DLPC H5Y 25 0.00955100 1.008000
26 L21_cD 1 DLPC C4X 26 -0.02407800 12.010000
27 L21_hL 1 DLPC H4X 27 0.02058000 1.008000
28 L21_hL 1 DLPC H4Y 28 0.02058000 1.008000
29 L21_cD 1 DLPC C3X 29 0.00151000 12.010000
30 L21_hL 1 DLPC H3X 30 0.01910800 1.008000
31 L21_hL 1 DLPC H3Y 31 0.01910800 1.008000
32 L21_cD 1 DLPC C2X 32 -0.17215900 12.010000
33 L21_hL 1 DLPC H2X 33 0.05441900 1.008000
34 L21_hL 1 DLPC H2Y 34 0.05441900 1.008000
35 L21_cC 1 DLPC C11 35 0.91040300 12.010000
36 L21_oC 1 DLPC O12 36 -0.67156600 16.000000
37 L21_oS 1 DLPC O11 37 -0.57548900 16.000000
38 L21_cA 1 DLPC C1 38 0.19693900 12.010000
39 L21_hE 1 DLPC HR 39 0.07046900 1.008000
40 L21_hE 1 DLPC HS 40 0.07046900 1.008000
41 L21_cA 1 DLPC C2 41 0.28124200 12.010000
42 L21_hE 1 DLPC HX 42 0.06325300 1.008000
43 L21_cA 1 DLPC C3 43 0.01745900 12.010000
44 L21_hE 1 DLPC HA 44 0.09559100 1.008000
45 L21_hE 1 DLPC HB 45 0.09559100 1.008000
46 L21_oT 1 DLPC O31 46 -0.50948000 16.000000
47 L21_pA 1 DLPC P31 47 1.33972100 30.970000
48 L21_oT 1 DLPC O32 48 -0.50817600 16.000000
49 L21_cA 1 DLPC C31 49 0.16680100 12.010000
50 L21_hE 1 DLPC H1A 50 0.07853400 1.008000
51 L21_hE 1 DLPC H1B 51 0.07853400 1.008000
52 L21_cA 1 DLPC C32 52 -0.17082400 12.010000
53 L21_hX 1 DLPC H2A 53 0.13641500 1.008000
54 L21_hX 1 DLPC H2B 54 0.13641500 1.008000
55 L21_nA 1 DLPC N31 55 0.24526200 14.010000
56 L21_cA 1 DLPC C33 56 -0.33897300 12.010000
57 L21_hX 1 DLPC H3A 57 0.17223000 1.008000
58 L21_hX 1 DLPC H3B 58 0.17223000 1.008000
59 L21_hX 1 DLPC H3C 59 0.17223000 1.008000
60 L21_cA 1 DLPC C34 60 -0.33897300 12.010000
61 L21_hX 1 DLPC H4A 61 0.17223000 1.008000
62 L21_hX 1 DLPC H4B 62 0.17223000 1.008000
63 L21_hX 1 DLPC H4C 63 0.17223000 1.008000
64 L21_cA 1 DLPC C35 64 -0.33897300 12.010000
65 L21_hX 1 DLPC H5A 65 0.17223000 1.008000
66 L21_hX 1 DLPC H5B 66 0.17223000 1.008000
67 L21_hX 1 DLPC H5C 67 0.17223000 1.008000
68 L21_oP 1 DLPC O33 68 -0.87581200 16.000000
69 L21_oP 1 DLPC O34 69 -0.87581200 16.000000
70 L21_oS 1 DLPC O21 70 -0.55294800 16.000000
71 L21_cC 1 DLPC C21 71 0.89761300 12.010000
72 L21_oC 1 DLPC O22 72 -0.67375500 16.000000
73 L21_hL 1 DLPC H12W 73 0.02580900 1.008000
74 L21_cD 1 DLPC C12Y 74 -0.11853400 12.010000
75 L21_hL 1 DLPC H12U 75 0.02580900 1.008000
76 L21_hL 1 DLPC H12V 76 0.02580900 1.008000
77 L21_cD 1 DLPC C11Y 77 0.02332000 12.010000
78 L21_hL 1 DLPC H11U 78 0.00827600 1.008000
79 L21_hL 1 DLPC H11V 79 0.00827600 1.008000
80 L21_cD 1 DLPC C10Y 80 -0.01957500 12.010000
81 L21_hL 1 DLPC H10U 81 0.01516300 1.008000
82 L21_hL 1 DLPC H10V 82 0.01516300 1.008000
83 L21_cD 1 DLPC C9Y 83 -0.02197500 12.010000
84 L21_hL 1 DLPC H9U 84 0.00586900 1.008000
85 L21_hL 1 DLPC H9V 85 0.00586900 1.008000
86 L21_cD 1 DLPC C8Y 86 -0.02087900 12.010000
87 L21_hL 1 DLPC H8U 87 0.01038500 1.008000
88 L21_hL 1 DLPC H8V 88 0.01038500 1.008000
89 L21_cD 1 DLPC C7Y 89 -0.01927900 12.010000
90 L21_hL 1 DLPC H7U 90 0.01120700 1.008000
91 L21_hL 1 DLPC H7V 91 0.01120700 1.008000
92 L21_cD 1 DLPC C6Y 92 -0.01963100 12.010000
93 L21_hL 1 DLPC H6U 93 0.01023600 1.008000
94 L21_hL 1 DLPC H6V 94 0.01023600 1.008000
95 L21_cD 1 DLPC C5Y 95 -0.01573500 12.010000
96 L21_hL 1 DLPC H5U 96 0.00955100 1.008000
97 L21_hL 1 DLPC H5V 97 0.00955100 1.008000
98 L21_cD 1 DLPC C4Y 98 -0.02407800 12.010000
99 L21_hL 1 DLPC H4U 99 0.02058000 1.008000
100 L21_hL 1 DLPC H4V 100 0.02058000 1.008000
101 L21_cD 1 DLPC C3Y 101 0.00151000 12.010000
102 L21_hL 1 DLPC H3U 102 0.01910800 1.008000
103 L21_hL 1 DLPC H3V 103 0.01910800 1.008000
104 L21_cD 1 DLPC C2Y 104 -0.17215900 12.010000
105 L21_hL 1 DLPC H2U 105 0.05441900 1.008000
106 L21_hL 1 DLPC H2V 106 0.05441900 1.008000

[ bonds ]
;    ai     aj funct         c0         c1         c2         c3
     32     35     1   0.15080 274721.440000
     29     32     1   0.15350 253634.080000
     26     29     1   0.15350 253634.080000
     23     26     1   0.15350 253634.080000
     20     23     1   0.15350 253634.080000
     17     20     1   0.15350 253634.080000
     14     17     1   0.15350 253634.080000
     11     14     1   0.15350 253634.080000
      8     11     1   0.15350 253634.080000
      5      8     1   0.15350 253634.080000
      2      5     1   0.15350 253634.080000
     71     72     1   0.12140 542246.400000
     71    104     1   0.15080 274721.440000
     70     71     1   0.13430 344175.840000
     55     56     1   0.14990 245684.480000
     55     60     1   0.14990 245684.480000
     55     64     1   0.14990 245684.480000
     52     55     1   0.14990 245684.480000
     49     52     1   0.15350 253634.080000
     48     49     1   0.14390 252295.200000
     47     48     1   0.16100 192464.000000
     47     68     1   0.14800 439320.000000
     47     69     1   0.14800 439320.000000
     46     47     1   0.16100 192464.000000
     43     46     1   0.14390 252295.200000
     41     43     1   0.15350 253634.080000
     41     70     1   0.14390 252295.200000
     38     41     1   0.15350 253634.080000
     37     38     1   0.14390 252295.200000
     35     36     1   0.12140 542246.400000
     35     37     1   0.13430 344175.840000
    101    104     1   0.15350 253634.080000
     98    101     1   0.15350 253634.080000
     95     98     1   0.15350 253634.080000
     92     95     1   0.15350 253634.080000
     89     92     1   0.15350 253634.080000
     86     89     1   0.15350 253634.080000
     83     86     1   0.15350 253634.080000
     80     83     1   0.15350 253634.080000
     77     80     1   0.15350 253634.080000
     74     77     1   0.15350 253634.080000
     32     34     1   0.10920 282252.640000
     32     33     1   0.10920 282252.640000
     29     30     1   0.10920 282252.640000
     29     31     1   0.10920 282252.640000
     26     28     1   0.10920 282252.640000
     26     27     1   0.10920 282252.640000
     23     25     1   0.10920 282252.640000
     23     24     1   0.10920 282252.640000
     20     22     1   0.10920 282252.640000
     20     21     1   0.10920 282252.640000
     17     19     1   0.10920 282252.640000
     17     18     1   0.10920 282252.640000
     14     16     1   0.10920 282252.640000
     14     15     1   0.10920 282252.640000
     11     13     1   0.10920 282252.640000
     11     12     1   0.10920 282252.640000
      8     10     1   0.10920 282252.640000
      8      9     1   0.10920 282252.640000
      5      7     1   0.10920 282252.640000
      5      6     1   0.10920 282252.640000
      2      3     1   0.10920 282252.640000
      2      4     1   0.10920 282252.640000
      1      2     1   0.10920 282252.640000
     64     65     1   0.10910 283424.160000
     64     66     1   0.10910 283424.160000
     64     67     1   0.10910 283424.160000
     60     61     1   0.10910 283424.160000
     60     62     1   0.10910 283424.160000
     60     63     1   0.10910 283424.160000
     56     57     1   0.10910 283424.160000
     56     58     1   0.10910 283424.160000
     56     59     1   0.10910 283424.160000
     52     53     1   0.10910 283424.160000
     52     54     1   0.10910 283424.160000
     49     50     1   0.10930 281081.120000
     49     51     1   0.10930 281081.120000
     43     44     1   0.10930 281081.120000
     43     45     1   0.10930 281081.120000
     41     42     1   0.10930 281081.120000
     38     39     1   0.10930 281081.120000
     38     40     1   0.10930 281081.120000
    104    106     1   0.10920 282252.640000
    104    105     1   0.10920 282252.640000
    101    102     1   0.10920 282252.640000
    101    103     1   0.10920 282252.640000
     98    100     1   0.10920 282252.640000
     98     99     1   0.10920 282252.640000
     95     97     1   0.10920 282252.640000
     95     96     1   0.10920 282252.640000
     92     94     1   0.10920 282252.640000
     92     93     1   0.10920 282252.640000
     89     91     1   0.10920 282252.640000
     89     90     1   0.10920 282252.640000
     86     88     1   0.10920 282252.640000
     86     87     1   0.10920 282252.640000
     83     85     1   0.10920 282252.640000
     83     84     1   0.10920 282252.640000
     80     82     1   0.10920 282252.640000
     80     81     1   0.10920 282252.640000
     77     79     1   0.10920 282252.640000
     77     78     1   0.10920 282252.640000
     74     75     1   0.10920 282252.640000
     74     76     1   0.10920 282252.640000
     73     74     1   0.10920 282252.640000


[ pairs ]
; ai aj funct fudgeQQ qi qj sigma epsilon; source-specific LJ and charge scaling
1 6 2 0.83333333333333 0.025809000016463 0.0082760000109756 0.26014242576773 0.020919999936173
1 7 2 0.83333333333333 0.025809000016463 0.0082760000109756 0.26014242576773 0.020919999936173
1 8 2 0.83333333333333 0.025809000016463 -0.019574999972561 0.30005468824211 0.069194303392389
2 9 2 0.83333333333333 -0.11853400009878 0.015163000005488 0.30005468824211 0.069194303392389
2 10 2 0.83333333333333 -0.11853400009878 0.015163000005488 0.30005468824211 0.069194303392389
2 11 2 0.83333333333333 -0.11853400009878 -0.021975000027439 0.33996695084507 0.076288266607901
3 6 2 0.83333333333333 0.025809000016463 0.0082760000109756 0.26014242576773 0.020919999936173
3 7 2 0.83333333333333 0.025809000016463 0.0082760000109756 0.26014242576773 0.020919999936173
3 8 2 0.83333333333333 0.025809000016463 -0.019574999972561 0.30005468824211 0.069194303392389
4 6 2 0.83333333333333 0.025809000016463 0.0082760000109756 0.26014242576773 0.020919999936173
4 7 2 0.83333333333333 0.025809000016463 0.0082760000109756 0.26014242576773 0.020919999936173
4 8 2 0.83333333333333 0.025809000016463 -0.019574999972561 0.30005468824211 0.069194303392389
5 12 2 0.83333333333333 0.02332 0.0058690000164633 0.30005468824211 0.069194303392389
5 13 2 0.83333333333333 0.02332 0.0058690000164633 0.30005468824211 0.069194303392389
5 14 2 0.83333333333333 0.02332 -0.020879000016463 0.33996695084507 0.076288266607901
6 9 2 0.83333333333333 0.0082760000109756 0.015163000005488 0.26014242576773 0.020919999936173
6 10 2 0.83333333333333 0.0082760000109756 0.015163000005488 0.26014242576773 0.020919999936173
6 11 2 0.83333333333333 0.0082760000109756 -0.021975000027439 0.30005468824211 0.069194303392389
7 9 2 0.83333333333333 0.0082760000109756 0.015163000005488 0.26014242576773 0.020919999936173
7 10 2 0.83333333333333 0.0082760000109756 0.015163000005488 0.26014242576773 0.020919999936173
7 11 2 0.83333333333333 0.0082760000109756 -0.021975000027439 0.30005468824211 0.069194303392389
8 15 2 0.83333333333333 -0.019574999972561 0.010385000027439 0.30005468824211 0.069194303392389
8 16 2 0.83333333333333 -0.019574999972561 0.010385000027439 0.30005468824211 0.069194303392389
8 17 2 0.83333333333333 -0.019574999972561 -0.019279000016463 0.33996695084507 0.076288266607901
9 12 2 0.83333333333333 0.015163000005488 0.0058690000164633 0.26014242576773 0.020919999936173
9 13 2 0.83333333333333 0.015163000005488 0.0058690000164633 0.26014242576773 0.020919999936173
9 14 2 0.83333333333333 0.015163000005488 -0.020879000016463 0.30005468824211 0.069194303392389
10 12 2 0.83333333333333 0.015163000005488 0.0058690000164633 0.26014242576773 0.020919999936173
10 13 2 0.83333333333333 0.015163000005488 0.0058690000164633 0.26014242576773 0.020919999936173
10 14 2 0.83333333333333 0.015163000005488 -0.020879000016463 0.30005468824211 0.069194303392389
11 18 2 0.83333333333333 -0.021975000027439 0.011206999994512 0.30005468824211 0.069194303392389
11 19 2 0.83333333333333 -0.021975000027439 0.011206999994512 0.30005468824211 0.069194303392389
11 20 2 0.83333333333333 -0.021975000027439 -0.019630999983537 0.33996695084507 0.076288266607901
12 15 2 0.83333333333333 0.0058690000164633 0.010385000027439 0.26014242576773 0.020919999936173
12 16 2 0.83333333333333 0.0058690000164633 0.010385000027439 0.26014242576773 0.020919999936173
12 17 2 0.83333333333333 0.0058690000164633 -0.019279000016463 0.30005468824211 0.069194303392389
13 15 2 0.83333333333333 0.0058690000164633 0.010385000027439 0.26014242576773 0.020919999936173
13 16 2 0.83333333333333 0.0058690000164633 0.010385000027439 0.26014242576773 0.020919999936173
13 17 2 0.83333333333333 0.0058690000164633 -0.019279000016463 0.30005468824211 0.069194303392389
14 21 2 0.83333333333333 -0.020879000016463 0.010236000010976 0.30005468824211 0.069194303392389
14 22 2 0.83333333333333 -0.020879000016463 0.010236000010976 0.30005468824211 0.069194303392389
14 23 2 0.83333333333333 -0.020879000016463 -0.015734999972561 0.33996695084507 0.076288266607901
15 18 2 0.83333333333333 0.010385000027439 0.011206999994512 0.26014242576773 0.020919999936173
15 19 2 0.83333333333333 0.010385000027439 0.011206999994512 0.26014242576773 0.020919999936173
15 20 2 0.83333333333333 0.010385000027439 -0.019630999983537 0.30005468824211 0.069194303392389
16 18 2 0.83333333333333 0.010385000027439 0.011206999994512 0.26014242576773 0.020919999936173
16 19 2 0.83333333333333 0.010385000027439 0.011206999994512 0.26014242576773 0.020919999936173
16 20 2 0.83333333333333 0.010385000027439 -0.019630999983537 0.30005468824211 0.069194303392389
17 24 2 0.83333333333333 -0.019279000016463 0.0095509999835367 0.30005468824211 0.069194303392389
17 25 2 0.83333333333333 -0.019279000016463 0.0095509999835367 0.30005468824211 0.069194303392389
17 26 2 0.83333333333333 -0.019279000016463 -0.024077999978049 0.33996695084507 0.076288266607901
18 21 2 0.83333333333333 0.011206999994512 0.010236000010976 0.26014242576773 0.020919999936173
18 22 2 0.83333333333333 0.011206999994512 0.010236000010976 0.26014242576773 0.020919999936173
18 23 2 0.83333333333333 0.011206999994512 -0.015734999972561 0.30005468824211 0.069194303392389
19 21 2 0.83333333333333 0.011206999994512 0.010236000010976 0.26014242576773 0.020919999936173
19 22 2 0.83333333333333 0.011206999994512 0.010236000010976 0.26014242576773 0.020919999936173
19 23 2 0.83333333333333 0.011206999994512 -0.015734999972561 0.30005468824211 0.069194303392389
20 27 2 0.83333333333333 -0.019630999983537 0.02058 0.30005468824211 0.069194303392389
20 28 2 0.83333333333333 -0.019630999983537 0.02058 0.30005468824211 0.069194303392389
20 29 2 0.83333333333333 -0.019630999983537 0.00151 0.33996695084507 0.076288266607901
21 24 2 0.83333333333333 0.010236000010976 0.0095509999835367 0.26014242576773 0.020919999936173
21 25 2 0.83333333333333 0.010236000010976 0.0095509999835367 0.26014242576773 0.020919999936173
21 26 2 0.83333333333333 0.010236000010976 -0.024077999978049 0.30005468824211 0.069194303392389
22 24 2 0.83333333333333 0.010236000010976 0.0095509999835367 0.26014242576773 0.020919999936173
22 25 2 0.83333333333333 0.010236000010976 0.0095509999835367 0.26014242576773 0.020919999936173
22 26 2 0.83333333333333 0.010236000010976 -0.024077999978049 0.30005468824211 0.069194303392389
23 30 2 0.83333333333333 -0.015734999972561 0.019107999978049 0.30005468824211 0.069194303392389
23 31 2 0.83333333333333 -0.015734999972561 0.019107999978049 0.30005468824211 0.069194303392389
23 32 2 0.83333333333333 -0.015734999972561 -0.17215900023597 0.33996695084507 0.076288266607901
24 27 2 0.83333333333333 0.0095509999835367 0.02058 0.26014242576773 0.020919999936173
24 28 2 0.83333333333333 0.0095509999835367 0.02058 0.26014242576773 0.020919999936173
24 29 2 0.83333333333333 0.0095509999835367 0.00151 0.30005468824211 0.069194303392389
25 27 2 0.83333333333333 0.0095509999835367 0.02058 0.26014242576773 0.020919999936173
25 28 2 0.83333333333333 0.0095509999835367 0.02058 0.26014242576773 0.020919999936173
25 29 2 0.83333333333333 0.0095509999835367 0.00151 0.30005468824211 0.069194303392389
26 33 2 0.83333333333333 -0.024077999978049 0.054419000016463 0.30005468824211 0.069194303392389
26 34 2 0.83333333333333 -0.024077999978049 0.054419000016463 0.30005468824211 0.069194303392389
26 35 2 0.83333333333333 -0.024077999978049 0.9104030007189 0.33996695087407 0.20291752963184
27 30 2 0.83333333333333 0.02058 0.019107999978049 0.26014242576773 0.020919999936173
27 31 2 0.83333333333333 0.02058 0.019107999978049 0.26014242576773 0.020919999936173
27 32 2 0.83333333333333 0.02058 -0.17215900023597 0.30005468824211 0.069194303392389
28 30 2 0.83333333333333 0.02058 0.019107999978049 0.26014242576773 0.020919999936173
28 31 2 0.83333333333333 0.02058 0.019107999978049 0.26014242576773 0.020919999936173
28 32 2 0.83333333333333 0.02058 -0.17215900023597 0.30005468824211 0.069194303392389
29 36 2 0.83333333333333 0.00151 -0.67156599880366 0.31797957047595 0.31708813257529
29 37 2 0.83333333333333 0.00151 -0.57548899974207 0.31998409262799 0.28529542121767
30 33 2 0.83333333333333 0.019107999978049 0.054419000016463 0.26014242576773 0.020919999936173
30 34 2 0.83333333333333 0.019107999978049 0.054419000016463 0.26014242576773 0.020919999936173
30 35 2 0.83333333333333 0.019107999978049 0.9104030007189 0.30005468825729 0.061349482798597
31 33 2 0.83333333333333 0.019107999978049 0.054419000016463 0.26014242576773 0.020919999936173
31 34 2 0.83333333333333 0.019107999978049 0.054419000016463 0.26014242576773 0.020919999936173
31 35 2 0.83333333333333 0.019107999978049 0.9104030007189 0.30005468825729 0.061349482798597
32 38 2 0.83333333333333 -0.17215900023597 0.19693900001646 0.33996695084507 0.2288647998237
33 36 2 0.83333333333333 0.054419000016463 -0.67156599880366 0.27806730790153 0.095867483596702
33 37 2 0.83333333333333 0.054419000016463 -0.57548899974207 0.2800718300513 0.086255369632554
34 36 2 0.83333333333333 0.054419000016463 -0.67156599880366 0.27806730790153 0.095867483596702
34 37 2 0.83333333333333 0.054419000016463 -0.57548899974207 0.2800718300513 0.086255369632554
35 39 2 0.83333333333333 0.9104030007189 0.070469000071341 0.29355112761526 0.076870681673027
35 40 2 0.83333333333333 0.9104030007189 0.070469000071341 0.29355112761526 0.076870681673027
35 41 2 0.83333333333333 0.9104030007189 0.28124200018658 0.33996695087407 0.20291752963184
36 38 2 0.83333333333333 -0.67156599880366 0.19693900001646 0.31797957047595 0.31708813257529
37 42 2 0.83333333333333 -0.57548899974207 0.063252999895732 0.27356826939641 0.10807766839674
37 43 2 0.83333333333333 -0.57548899974207 0.017459000016463 0.31998409262799 0.28529542121767
37 70 2 0.83333333333333 -0.57548899974207 -0.55294799778294 0.30000123432245 0.35564000022068
38 44 2 0.83333333333333 0.19693900001646 0.095591000038414 0.29355112776543 0.086700213146672
38 45 2 0.83333333333333 0.19693900001646 0.095591000038414 0.29355112776543 0.086700213146672
38 46 2 0.83333333333333 0.19693900001646 -0.50947999978049 0.31998409262799 0.28529542121767
38 71 2 0.83333333333333 0.19693900001646 0.89761300165182 0.33996695087407 0.20291752963184
39 42 2 0.83333333333333 0.070469000071341 0.063252999895732 0.24713530426422 0.032844400205981
39 43 2 0.83333333333333 0.070469000071341 0.017459000016463 0.29355112776543 0.086700213146672
39 70 2 0.83333333333333 0.070469000071341 -0.55294799778294 0.27356826939641 0.10807766839674
40 42 2 0.83333333333333 0.070469000071341 0.063252999895732 0.24713530426422 0.032844400205981
40 43 2 0.83333333333333 0.070469000071341 0.017459000016463 0.29355112776543 0.086700213146672
40 70 2 0.83333333333333 0.070469000071341 -0.55294799778294 0.27356826939641 0.10807766839674
41 47 2 0.83333333333333 0.28124200018658 1.3397210011908 0.35707220617836 0.30944633210394
41 72 2 0.83333333333333 0.28124200018658 -0.67375499799696 0.31797957047595 0.31708813257529
41 104 2 0.83333333333333 0.28124200018658 -0.17215900023597 0.33996695084507 0.2288647998237
42 44 2 0.83333333333333 0.063252999895732 0.095591000038414 0.24713530426422 0.032844400205981
42 45 2 0.83333333333333 0.063252999895732 0.095591000038414 0.24713530426422 0.032844400205981
42 46 2 0.83333333333333 0.063252999895732 -0.50947999978049 0.27356826939641 0.10807766839674
42 71 2 0.83333333333333 0.063252999895732 0.89761300165182 0.29355112761526 0.076870681673027
43 48 2 0.83333333333333 0.017459000016463 -0.50817599973659 0.31998409262799 0.28529542121767
43 68 2 0.83333333333333 0.017459000016463 -0.87581199958293 0.31797957047595 0.31708813257529
43 69 2 0.83333333333333 0.017459000016463 -0.87581199958293 0.31797957047595 0.31708813257529
43 71 2 0.83333333333333 0.017459000016463 0.89761300165182 0.33996695087407 0.20291752963184
44 47 2 0.83333333333333 0.095591000038414 1.3397210011908 0.31065638299277 0.11722669057481
44 70 2 0.83333333333333 0.095591000038414 -0.55294799778294 0.27356826939641 0.10807766839674
45 47 2 0.83333333333333 0.095591000038414 1.3397210011908 0.31065638299277 0.11722669057481
45 70 2 0.83333333333333 0.095591000038414 -0.55294799778294 0.27356826939641 0.10807766839674
46 49 2 0.83333333333333 -0.50947999978049 0.16680099987378 0.31998409262799 0.28529542121767
46 70 2 0.83333333333333 -0.50947999978049 -0.55294799778294 0.30000123432245 0.35564000022068
47 50 2 0.83333333333333 1.3397210011908 0.07853400009878 0.31065638299277 0.11722669057481
47 51 2 0.83333333333333 1.3397210011908 0.07853400009878 0.31065638299277 0.11722669057481
47 52 2 0.83333333333333 1.3397210011908 -0.17082400026341 0.35707220617836 0.30944633210394
48 53 2 0.83333333333333 -0.50817599973659 0.13641499975305 0.24799947608237 0.10807766872372
48 54 2 0.83333333333333 -0.50817599973659 0.13641499975305 0.24799947608237 0.10807766872372
48 55 2 0.83333333333333 -0.50817599973659 0.24526199985732 0.31250054330942 0.35564000053052
49 56 2 0.83333333333333 0.16680099987378 -0.33897300011524 0.33996695084507 0.2288647998237
49 60 2 0.83333333333333 0.16680099987378 -0.33897300011524 0.33996695084507 0.2288647998237
49 64 2 0.83333333333333 0.16680099987378 -0.33897300011524 0.33996695084507 0.2288647998237
49 68 2 0.83333333333333 0.16680099987378 -0.87581199958293 0.31797957047595 0.31708813257529
49 69 2 0.83333333333333 0.16680099987378 -0.87581199958293 0.31797957047595 0.31708813257529
50 53 2 0.83333333333333 0.07853400009878 0.13641499975305 0.22156651118302 0.032844400019638
50 54 2 0.83333333333333 0.07853400009878 0.13641499975305 0.22156651118302 0.032844400019638
50 55 2 0.83333333333333 0.07853400009878 0.24526199985732 0.2860675785499 0.10807766765337
51 53 2 0.83333333333333 0.07853400009878 0.13641499975305 0.22156651118302 0.032844400019638
51 54 2 0.83333333333333 0.07853400009878 0.13641499975305 0.22156651118302 0.032844400019638
51 55 2 0.83333333333333 0.07853400009878 0.24526199985732 0.2860675785499 0.10807766765337
52 57 2 0.83333333333333 -0.17082400026341 0.17223000005488 0.26798233433913 0.086700213743521
52 58 2 0.83333333333333 -0.17082400026341 0.17223000005488 0.26798233433913 0.086700213743521
52 59 2 0.83333333333333 -0.17082400026341 0.17223000005488 0.26798233433913 0.086700213743521
52 61 2 0.83333333333333 -0.17082400026341 0.17223000005488 0.26798233433913 0.086700213743521
52 62 2 0.83333333333333 -0.17082400026341 0.17223000005488 0.26798233433913 0.086700213743521
52 63 2 0.83333333333333 -0.17082400026341 0.17223000005488 0.26798233433913 0.086700213743521
52 65 2 0.83333333333333 -0.17082400026341 0.17223000005488 0.26798233433913 0.086700213743521
52 66 2 0.83333333333333 -0.17082400026341 0.17223000005488 0.26798233433913 0.086700213743521
52 67 2 0.83333333333333 -0.17082400026341 0.17223000005488 0.26798233433913 0.086700213743521
53 56 2 0.83333333333333 0.13641499975305 -0.33897300011524 0.26798233433913 0.086700213743521
53 60 2 0.83333333333333 0.13641499975305 -0.33897300011524 0.26798233433913 0.086700213743521
53 64 2 0.83333333333333 0.13641499975305 -0.33897300011524 0.26798233433913 0.086700213743521
54 56 2 0.83333333333333 0.13641499975305 -0.33897300011524 0.26798233433913 0.086700213743521
54 60 2 0.83333333333333 0.13641499975305 -0.33897300011524 0.26798233433913 0.086700213743521
54 64 2 0.83333333333333 0.13641499975305 -0.33897300011524 0.26798233433913 0.086700213743521
56 61 2 0.83333333333333 -0.33897300011524 0.17223000005488 0.26798233433913 0.086700213743521
56 62 2 0.83333333333333 -0.33897300011524 0.17223000005488 0.26798233433913 0.086700213743521
56 63 2 0.83333333333333 -0.33897300011524 0.17223000005488 0.26798233433913 0.086700213743521
56 65 2 0.83333333333333 -0.33897300011524 0.17223000005488 0.26798233433913 0.086700213743521
56 66 2 0.83333333333333 -0.33897300011524 0.17223000005488 0.26798233433913 0.086700213743521
56 67 2 0.83333333333333 -0.33897300011524 0.17223000005488 0.26798233433913 0.086700213743521
57 60 2 0.83333333333333 0.17223000005488 -0.33897300011524 0.26798233433913 0.086700213743521
57 64 2 0.83333333333333 0.17223000005488 -0.33897300011524 0.26798233433913 0.086700213743521
58 60 2 0.83333333333333 0.17223000005488 -0.33897300011524 0.26798233433913 0.086700213743521
58 64 2 0.83333333333333 0.17223000005488 -0.33897300011524 0.26798233433913 0.086700213743521
59 60 2 0.83333333333333 0.17223000005488 -0.33897300011524 0.26798233433913 0.086700213743521
59 64 2 0.83333333333333 0.17223000005488 -0.33897300011524 0.26798233433913 0.086700213743521
60 65 2 0.83333333333333 -0.33897300011524 0.17223000005488 0.26798233433913 0.086700213743521
60 66 2 0.83333333333333 -0.33897300011524 0.17223000005488 0.26798233433913 0.086700213743521
60 67 2 0.83333333333333 -0.33897300011524 0.17223000005488 0.26798233433913 0.086700213743521
61 64 2 0.83333333333333 0.17223000005488 -0.33897300011524 0.26798233433913 0.086700213743521
62 64 2 0.83333333333333 0.17223000005488 -0.33897300011524 0.26798233433913 0.086700213743521
63 64 2 0.83333333333333 0.17223000005488 -0.33897300011524 0.26798233433913 0.086700213743521
70 101 2 0.83333333333333 -0.55294799778294 0.00151 0.31998409262799 0.28529542121767
70 105 2 0.83333333333333 -0.55294799778294 0.054419000016463 0.2800718300513 0.086255369632554
70 106 2 0.83333333333333 -0.55294799778294 0.054419000016463 0.2800718300513 0.086255369632554
71 98 2 0.83333333333333 0.89761300165182 -0.024077999978049 0.33996695087407 0.20291752963184
71 102 2 0.83333333333333 0.89761300165182 0.019107999978049 0.30005468825729 0.061349482798597
71 103 2 0.83333333333333 0.89761300165182 0.019107999978049 0.30005468825729 0.061349482798597
72 101 2 0.83333333333333 -0.67375499799696 0.00151 0.31797957047595 0.31708813257529
72 105 2 0.83333333333333 -0.67375499799696 0.054419000016463 0.27806730790153 0.095867483596702
72 106 2 0.83333333333333 -0.67375499799696 0.054419000016463 0.27806730790153 0.095867483596702
73 78 2 0.83333333333333 0.025809000016463 0.0082760000109756 0.26014242576773 0.020919999936173
73 79 2 0.83333333333333 0.025809000016463 0.0082760000109756 0.26014242576773 0.020919999936173
73 80 2 0.83333333333333 0.025809000016463 -0.019574999972561 0.30005468824211 0.069194303392389
74 81 2 0.83333333333333 -0.11853400009878 0.015163000005488 0.30005468824211 0.069194303392389
74 82 2 0.83333333333333 -0.11853400009878 0.015163000005488 0.30005468824211 0.069194303392389
74 83 2 0.83333333333333 -0.11853400009878 -0.021975000027439 0.33996695084507 0.076288266607901
75 78 2 0.83333333333333 0.025809000016463 0.0082760000109756 0.26014242576773 0.020919999936173
75 79 2 0.83333333333333 0.025809000016463 0.0082760000109756 0.26014242576773 0.020919999936173
75 80 2 0.83333333333333 0.025809000016463 -0.019574999972561 0.30005468824211 0.069194303392389
76 78 2 0.83333333333333 0.025809000016463 0.0082760000109756 0.26014242576773 0.020919999936173
76 79 2 0.83333333333333 0.025809000016463 0.0082760000109756 0.26014242576773 0.020919999936173
76 80 2 0.83333333333333 0.025809000016463 -0.019574999972561 0.30005468824211 0.069194303392389
77 84 2 0.83333333333333 0.02332 0.0058690000164633 0.30005468824211 0.069194303392389
77 85 2 0.83333333333333 0.02332 0.0058690000164633 0.30005468824211 0.069194303392389
77 86 2 0.83333333333333 0.02332 -0.020879000016463 0.33996695084507 0.076288266607901
78 81 2 0.83333333333333 0.0082760000109756 0.015163000005488 0.26014242576773 0.020919999936173
78 82 2 0.83333333333333 0.0082760000109756 0.015163000005488 0.26014242576773 0.020919999936173
78 83 2 0.83333333333333 0.0082760000109756 -0.021975000027439 0.30005468824211 0.069194303392389
79 81 2 0.83333333333333 0.0082760000109756 0.015163000005488 0.26014242576773 0.020919999936173
79 82 2 0.83333333333333 0.0082760000109756 0.015163000005488 0.26014242576773 0.020919999936173
79 83 2 0.83333333333333 0.0082760000109756 -0.021975000027439 0.30005468824211 0.069194303392389
80 87 2 0.83333333333333 -0.019574999972561 0.010385000027439 0.30005468824211 0.069194303392389
80 88 2 0.83333333333333 -0.019574999972561 0.010385000027439 0.30005468824211 0.069194303392389
80 89 2 0.83333333333333 -0.019574999972561 -0.019279000016463 0.33996695084507 0.076288266607901
81 84 2 0.83333333333333 0.015163000005488 0.0058690000164633 0.26014242576773 0.020919999936173
81 85 2 0.83333333333333 0.015163000005488 0.0058690000164633 0.26014242576773 0.020919999936173
81 86 2 0.83333333333333 0.015163000005488 -0.020879000016463 0.30005468824211 0.069194303392389
82 84 2 0.83333333333333 0.015163000005488 0.0058690000164633 0.26014242576773 0.020919999936173
82 85 2 0.83333333333333 0.015163000005488 0.0058690000164633 0.26014242576773 0.020919999936173
82 86 2 0.83333333333333 0.015163000005488 -0.020879000016463 0.30005468824211 0.069194303392389
83 90 2 0.83333333333333 -0.021975000027439 0.011206999994512 0.30005468824211 0.069194303392389
83 91 2 0.83333333333333 -0.021975000027439 0.011206999994512 0.30005468824211 0.069194303392389
83 92 2 0.83333333333333 -0.021975000027439 -0.019630999983537 0.33996695084507 0.076288266607901
84 87 2 0.83333333333333 0.0058690000164633 0.010385000027439 0.26014242576773 0.020919999936173
84 88 2 0.83333333333333 0.0058690000164633 0.010385000027439 0.26014242576773 0.020919999936173
84 89 2 0.83333333333333 0.0058690000164633 -0.019279000016463 0.30005468824211 0.069194303392389
85 87 2 0.83333333333333 0.0058690000164633 0.010385000027439 0.26014242576773 0.020919999936173
85 88 2 0.83333333333333 0.0058690000164633 0.010385000027439 0.26014242576773 0.020919999936173
85 89 2 0.83333333333333 0.0058690000164633 -0.019279000016463 0.30005468824211 0.069194303392389
86 93 2 0.83333333333333 -0.020879000016463 0.010236000010976 0.30005468824211 0.069194303392389
86 94 2 0.83333333333333 -0.020879000016463 0.010236000010976 0.30005468824211 0.069194303392389
86 95 2 0.83333333333333 -0.020879000016463 -0.015734999972561 0.33996695084507 0.076288266607901
87 90 2 0.83333333333333 0.010385000027439 0.011206999994512 0.26014242576773 0.020919999936173
87 91 2 0.83333333333333 0.010385000027439 0.011206999994512 0.26014242576773 0.020919999936173
87 92 2 0.83333333333333 0.010385000027439 -0.019630999983537 0.30005468824211 0.069194303392389
88 90 2 0.83333333333333 0.010385000027439 0.011206999994512 0.26014242576773 0.020919999936173
88 91 2 0.83333333333333 0.010385000027439 0.011206999994512 0.26014242576773 0.020919999936173
88 92 2 0.83333333333333 0.010385000027439 -0.019630999983537 0.30005468824211 0.069194303392389
89 96 2 0.83333333333333 -0.019279000016463 0.0095509999835367 0.30005468824211 0.069194303392389
89 97 2 0.83333333333333 -0.019279000016463 0.0095509999835367 0.30005468824211 0.069194303392389
89 98 2 0.83333333333333 -0.019279000016463 -0.024077999978049 0.33996695084507 0.076288266607901
90 93 2 0.83333333333333 0.011206999994512 0.010236000010976 0.26014242576773 0.020919999936173
90 94 2 0.83333333333333 0.011206999994512 0.010236000010976 0.26014242576773 0.020919999936173
90 95 2 0.83333333333333 0.011206999994512 -0.015734999972561 0.30005468824211 0.069194303392389
91 93 2 0.83333333333333 0.011206999994512 0.010236000010976 0.26014242576773 0.020919999936173
91 94 2 0.83333333333333 0.011206999994512 0.010236000010976 0.26014242576773 0.020919999936173
91 95 2 0.83333333333333 0.011206999994512 -0.015734999972561 0.30005468824211 0.069194303392389
92 99 2 0.83333333333333 -0.019630999983537 0.02058 0.30005468824211 0.069194303392389
92 100 2 0.83333333333333 -0.019630999983537 0.02058 0.30005468824211 0.069194303392389
92 101 2 0.83333333333333 -0.019630999983537 0.00151 0.33996695084507 0.076288266607901
93 96 2 0.83333333333333 0.010236000010976 0.0095509999835367 0.26014242576773 0.020919999936173
93 97 2 0.83333333333333 0.010236000010976 0.0095509999835367 0.26014242576773 0.020919999936173
93 98 2 0.83333333333333 0.010236000010976 -0.024077999978049 0.30005468824211 0.069194303392389
94 96 2 0.83333333333333 0.010236000010976 0.0095509999835367 0.26014242576773 0.020919999936173
94 97 2 0.83333333333333 0.010236000010976 0.0095509999835367 0.26014242576773 0.020919999936173
94 98 2 0.83333333333333 0.010236000010976 -0.024077999978049 0.30005468824211 0.069194303392389
95 102 2 0.83333333333333 -0.015734999972561 0.019107999978049 0.30005468824211 0.069194303392389
95 103 2 0.83333333333333 -0.015734999972561 0.019107999978049 0.30005468824211 0.069194303392389
95 104 2 0.83333333333333 -0.015734999972561 -0.17215900023597 0.33996695084507 0.076288266607901
96 99 2 0.83333333333333 0.0095509999835367 0.02058 0.26014242576773 0.020919999936173
96 100 2 0.83333333333333 0.0095509999835367 0.02058 0.26014242576773 0.020919999936173
96 101 2 0.83333333333333 0.0095509999835367 0.00151 0.30005468824211 0.069194303392389
97 99 2 0.83333333333333 0.0095509999835367 0.02058 0.26014242576773 0.020919999936173
97 100 2 0.83333333333333 0.0095509999835367 0.02058 0.26014242576773 0.020919999936173
97 101 2 0.83333333333333 0.0095509999835367 0.00151 0.30005468824211 0.069194303392389
98 105 2 0.83333333333333 -0.024077999978049 0.054419000016463 0.30005468824211 0.069194303392389
98 106 2 0.83333333333333 -0.024077999978049 0.054419000016463 0.30005468824211 0.069194303392389
99 102 2 0.83333333333333 0.02058 0.019107999978049 0.26014242576773 0.020919999936173
99 103 2 0.83333333333333 0.02058 0.019107999978049 0.26014242576773 0.020919999936173
99 104 2 0.83333333333333 0.02058 -0.17215900023597 0.30005468824211 0.069194303392389
100 102 2 0.83333333333333 0.02058 0.019107999978049 0.26014242576773 0.020919999936173
100 103 2 0.83333333333333 0.02058 0.019107999978049 0.26014242576773 0.020919999936173
100 104 2 0.83333333333333 0.02058 -0.17215900023597 0.30005468824211 0.069194303392389
102 105 2 0.83333333333333 0.019107999978049 0.054419000016463 0.26014242576773 0.020919999936173
102 106 2 0.83333333333333 0.019107999978049 0.054419000016463 0.26014242576773 0.020919999936173
103 105 2 0.83333333333333 0.019107999978049 0.054419000016463 0.26014242576773 0.020919999936173
103 106 2 0.83333333333333 0.019107999978049 0.054419000016463 0.26014242576773 0.020919999936173

[ angles ]
;    ai     aj     ak funct         c0         c1         c2         c3
     32     35     36     1   123.1100526 569.275040
     32     35     37     1   111.9600481 579.567680
     29     32     35     1   110.5300474 533.794720
     26     29     32     1   112.0500483 394.969600
     23     26     29     1   112.0500483 394.969600
     20     23     26     1   112.0500483 394.969600
     17     20     23     1   112.0500483 394.969600
     14     17     20     1   112.0500483 394.969600
     11     14     17     1   112.0500483 394.969600
      8     11     14     1   112.0500483 394.969600
      5      8     11     1   112.0500483 394.969600
      2      5      8     1   112.0500483 394.969600
     72     71    104     1   123.1100526 569.275040
     71    104    101     1   110.5300474 533.794720
     70     71     72     1   123.3300529 635.382240
     70     71    104     1   111.9600481 579.567680
     68     47     69     1   119.9000514 1171.520000
     60     55     64     1   110.6400473 525.845120
     56     55     60     1   110.6400473 525.845120
     56     55     64     1   110.6400473 525.845120
     52     55     56     1   110.6400473 525.845120
     52     55     60     1   110.6400473 525.845120
     52     55     64     1   110.6400473 525.845120
     49     52     55     1   114.3200492 539.317600
     48     47     68     1   108.2300464 836.800000
     48     47     69     1   108.2300464 836.800000
     48     49     52     1   108.4200467 567.183040
     47     48     49     1   120.5000516 836.800000
     46     47     48     1   102.6000440 753.120000
     46     47     68     1   108.2300464 836.800000
     46     47     69     1   108.2300464 836.800000
     43     41     70     1   108.4200467 567.183040
     43     46     47     1   120.5000516 836.800000
     41     43     46     1   108.4200467 567.183040
     41     70     71     1   115.1400492 532.455840
     38     41     43     1   110.6300475 528.941280
     38     41     70     1   108.4200467 567.183040
     37     38     41     1   108.4200467 567.183040
     36     35     37     1   123.3300529 635.382240
     35     37     38     1   115.1400492 532.455840
     98    101    104     1   112.0500483 394.969600
     95     98    101     1   112.0500483 394.969600
     92     95     98     1   112.0500483 394.969600
     89     92     95     1   112.0500483 394.969600
     86     89     92     1   112.0500483 394.969600
     83     86     89     1   112.0500483 394.969600
     80     83     86     1   112.0500483 394.969600
     77     80     83     1   112.0500483 394.969600
     74     77     80     1   112.0500483 394.969600
     34     32     35     1   109.6800468 394.969600
     33     32     34     1   108.3500467 329.950240
     33     32     35     1   109.6800468 394.969600
     31     29     32     1   110.0500475 388.024160
     30     29     32     1   110.0500475 388.024160
     30     29     31     1   108.3500467 329.950240
     29     32     34     1   110.0500475 388.024160
     29     32     33     1   110.0500475 388.024160
     28     26     29     1   110.0500475 388.024160
     27     26     29     1   110.0500475 388.024160
     27     26     28     1   108.3500467 329.950240
     26     29     30     1   110.0500475 388.024160
     26     29     31     1   110.0500475 388.024160
     25     23     26     1   110.0500475 388.024160
     24     23     26     1   110.0500475 388.024160
     24     23     25     1   108.3500467 329.950240
     23     26     28     1   110.0500475 388.024160
     23     26     27     1   110.0500475 388.024160
     22     20     23     1   110.0500475 388.024160
     21     20     23     1   110.0500475 388.024160
     21     20     22     1   108.3500467 329.950240
     20     23     25     1   110.0500475 388.024160
     20     23     24     1   110.0500475 388.024160
     19     17     20     1   110.0500475 388.024160
     18     17     20     1   110.0500475 388.024160
     18     17     19     1   108.3500467 329.950240
     17     20     22     1   110.0500475 388.024160
     17     20     21     1   110.0500475 388.024160
     16     14     17     1   110.0500475 388.024160
     15     14     17     1   110.0500475 388.024160
     15     14     16     1   108.3500467 329.950240
     14     17     19     1   110.0500475 388.024160
     14     17     18     1   110.0500475 388.024160
     13     11     14     1   110.0500475 388.024160
     12     11     14     1   110.0500475 388.024160
     12     11     13     1   108.3500467 329.950240
     11     14     16     1   110.0500475 388.024160
     11     14     15     1   110.0500475 388.024160
     10      8     11     1   110.0500475 388.024160
      9      8     11     1   110.0500475 388.024160
      9      8     10     1   108.3500467 329.950240
      8     11     13     1   110.0500475 388.024160
      8     11     12     1   110.0500475 388.024160
      7      5      8     1   110.0500475 388.024160
      6      5      8     1   110.0500475 388.024160
      6      5      7     1   108.3500467 329.950240
      5      8     10     1   110.0500475 388.024160
      5      8      9     1   110.0500475 388.024160
      4      2      5     1   110.0500475 388.024160
      3      2      4     1   108.3500467 329.950240
      3      2      5     1   110.0500475 388.024160
      2      5      7     1   110.0500475 388.024160
      2      5      6     1   110.0500475 388.024160
      1      2      3     1   108.3500467 329.950240
      1      2      4     1   108.3500467 329.950240
      1      2      5     1   110.0500475 388.024160
     71    104    106     1   109.6800468 394.969600
     71    104    105     1   109.6800468 394.969600
     66     64     67     1   110.7400473 326.686720
     65     64     66     1   110.7400473 326.686720
     65     64     67     1   110.7400473 326.686720
     62     60     63     1   110.7400473 326.686720
     61     60     62     1   110.7400473 326.686720
     61     60     63     1   110.7400473 326.686720
     58     56     59     1   110.7400473 326.686720
     57     56     58     1   110.7400473 326.686720
     57     56     59     1   110.7400473 326.686720
     55     56     57     1   107.9100461 410.199360
     55     56     58     1   107.9100461 410.199360
     55     56     59     1   107.9100461 410.199360
     55     60     61     1   107.9100461 410.199360
     55     60     62     1   107.9100461 410.199360
     55     60     63     1   107.9100461 410.199360
     55     64     65     1   107.9100461 410.199360
     55     64     66     1   107.9100461 410.199360
     55     64     67     1   107.9100461 410.199360
     54     52     55     1   107.9100461 410.199360
     53     52     54     1   110.7400473 326.686720
     53     52     55     1   107.9100461 410.199360
     51     49     52     1   110.0700471 387.940480
     50     49     51     1   109.5500472 327.858240
     50     49     52     1   110.0700471 387.940480
     49     52     53     1   111.7400478 385.095360
     49     52     54     1   111.7400478 385.095360
     48     49     50     1   108.8200469 425.429120
     48     49     51     1   108.8200469 425.429120
     45     43     46     1   108.8200469 425.429120
     44     43     45     1   109.5500472 327.858240
     44     43     46     1   108.8200469 425.429120
     42     41     43     1   110.0700471 387.940480
     42     41     70     1   108.8200469 425.429120
     41     43     44     1   110.0700471 387.940480
     41     43     45     1   110.0700471 387.940480
     40     38     41     1   110.0700471 387.940480
     39     38     40     1   109.5500472 327.858240
     39     38     41     1   110.0700471 387.940480
     38     41     42     1   110.0700471 387.940480
     37     38     39     1   108.8200469 425.429120
     37     38     40     1   108.8200469 425.429120
    105    104    106     1   108.3500467 329.950240
    103    101    104     1   110.0500475 388.024160
    102    101    104     1   110.0500475 388.024160
    102    101    103     1   108.3500467 329.950240
    101    104    106     1   110.0500475 388.024160
    101    104    105     1   110.0500475 388.024160
    100     98    101     1   110.0500475 388.024160
     99     98    101     1   110.0500475 388.024160
     99     98    100     1   108.3500467 329.950240
     98    101    102     1   110.0500475 388.024160
     98    101    103     1   110.0500475 388.024160
     97     95     98     1   110.0500475 388.024160
     96     95     98     1   110.0500475 388.024160
     96     95     97     1   108.3500467 329.950240
     95     98    100     1   110.0500475 388.024160
     95     98     99     1   110.0500475 388.024160
     94     92     95     1   110.0500475 388.024160
     93     92     95     1   110.0500475 388.024160
     93     92     94     1   108.3500467 329.950240
     92     95     97     1   110.0500475 388.024160
     92     95     96     1   110.0500475 388.024160
     91     89     92     1   110.0500475 388.024160
     90     89     92     1   110.0500475 388.024160
     90     89     91     1   108.3500467 329.950240
     89     92     94     1   110.0500475 388.024160
     89     92     93     1   110.0500475 388.024160
     88     86     89     1   110.0500475 388.024160
     87     86     89     1   110.0500475 388.024160
     87     86     88     1   108.3500467 329.950240
     86     89     91     1   110.0500475 388.024160
     86     89     90     1   110.0500475 388.024160
     85     83     86     1   110.0500475 388.024160
     84     83     86     1   110.0500475 388.024160
     84     83     85     1   108.3500467 329.950240
     83     86     88     1   110.0500475 388.024160
     83     86     87     1   110.0500475 388.024160
     82     80     83     1   110.0500475 388.024160
     81     80     83     1   110.0500475 388.024160
     81     80     82     1   108.3500467 329.950240
     80     83     85     1   110.0500475 388.024160
     80     83     84     1   110.0500475 388.024160
     79     77     80     1   110.0500475 388.024160
     78     77     80     1   110.0500475 388.024160
     78     77     79     1   108.3500467 329.950240
     77     80     82     1   110.0500475 388.024160
     77     80     81     1   110.0500475 388.024160
     76     74     77     1   110.0500475 388.024160
     75     74     76     1   108.3500467 329.950240
     75     74     77     1   110.0500475 388.024160
     74     77     79     1   110.0500475 388.024160
     74     77     78     1   110.0500475 388.024160
     73     74     75     1   108.3500467 329.950240
     73     74     76     1   108.3500467 329.950240
     73     74     77     1   110.0500475 388.024160


[ dihedrals ]
;    ai     aj     ak     al funct         c0         c1         c2         c3         c4         c5
     32     35     37     38     1  180.0000771  11.2968000  2
     29     32     35     36     1  180.0000771  0.0000000  2
     29     32     35     37     1  180.0000771  0.0000000  2
     26     29     32     35     1  0.0000000  0.6527040  3
     23     26     29     32     1  0.0000000  0.4184000  1
     23     26     29     32     1  0.0000000  0.4184000  2
     23     26     29     32     1  0.0000000  1.2552000  3
     23     26     29     32     1  0.0000000  0.4184000  4
     23     26     29     32     1  0.0000000  0.4184000  5
     20     23     26     29     1  0.0000000  0.4184000  1
     20     23     26     29     1  0.0000000  0.4184000  2
     20     23     26     29     1  0.0000000  1.2552000  3
     20     23     26     29     1  0.0000000  0.4184000  4
     20     23     26     29     1  0.0000000  0.4184000  5
     17     20     23     26     1  0.0000000  0.4184000  1
     17     20     23     26     1  0.0000000  0.4184000  2
     17     20     23     26     1  0.0000000  1.2552000  3
     17     20     23     26     1  0.0000000  0.4184000  4
     17     20     23     26     1  0.0000000  0.4184000  5
     14     17     20     23     1  0.0000000  0.4184000  1
     14     17     20     23     1  0.0000000  0.4184000  2
     14     17     20     23     1  0.0000000  1.2552000  3
     14     17     20     23     1  0.0000000  0.4184000  4
     14     17     20     23     1  0.0000000  0.4184000  5
     11     14     17     20     1  0.0000000  0.4184000  1
     11     14     17     20     1  0.0000000  0.4184000  2
     11     14     17     20     1  0.0000000  1.2552000  3
     11     14     17     20     1  0.0000000  0.4184000  4
     11     14     17     20     1  0.0000000  0.4184000  5
      8     11     14     17     1  0.0000000  0.4184000  1
      8     11     14     17     1  0.0000000  0.4184000  2
      8     11     14     17     1  0.0000000  1.2552000  3
      8     11     14     17     1  0.0000000  0.4184000  4
      8     11     14     17     1  0.0000000  0.4184000  5
      5      8     11     14     1  0.0000000  0.4184000  1
      5      8     11     14     1  0.0000000  0.4184000  2
      5      8     11     14     1  0.0000000  1.2552000  3
      5      8     11     14     1  0.0000000  0.4184000  4
      5      8     11     14     1  0.0000000  0.4184000  5
      2      5      8     11     1  0.0000000  0.4184000  1
      2      5      8     11     1  0.0000000  0.4184000  2
      2      5      8     11     1  0.0000000  1.2552000  3
      2      5      8     11     1  0.0000000  0.4184000  4
      2      5      8     11     1  0.0000000  0.4184000  5
     72     71    104    101     1  180.0000771  0.0000000  2
     71    104    101     98     1  0.0000000  0.6527040  3
     70     71    104    101     1  180.0000771  0.0000000  2
     49     48     47     68     1  0.0000000  0.0000000  1
     49     48     47     68     1  0.0000000  0.8368000  2
     49     48     47     68     1  0.0000000  0.0000000  3
     49     48     47     68     1  0.0000000  0.0000000  4
     49     48     47     68     1  0.0000000  0.0000000  5
     49     48     47     69     1  0.0000000  0.0000000  1
     49     48     47     69     1  0.0000000  0.8368000  2
     49     48     47     69     1  0.0000000  0.0000000  3
     49     48     47     69     1  0.0000000  0.0000000  4
     49     48     47     69     1  0.0000000  0.0000000  5
     49     52     55     56     1  0.0000000  0.6527040  3
     49     52     55     60     1  0.0000000  0.6527040  3
     49     52     55     64     1  0.0000000  0.6527040  3
     48     49     52     55     1  0.0000000  4.1840000  3
     47     48     49     52     1  180.0000771  -3.3472000  2
     47     48     49     52     1  0.0000000  0.0000000  3
     46     43     41     70     1  0.0000000  0.0000000  1
     46     43     41     70     1  0.0000000  0.0000000  2
     46     43     41     70     1  0.0000000  0.0000000  3
     46     43     41     70     1  0.0000000  0.0000000  4
     46     43     41     70     1  0.0000000  0.0000000  5
     46     47     48     49     1  0.0000000  9.6232000  2
     46     47     48     49     1  0.0000000  2.5104000  3
     43     41     70     71     1  0.0000000  -0.4184000  1
     43     41     70     71     1  240.0001029  -1.2552000  2
     43     41     70     71     1  300.0001286  -0.8368000  3
     43     46     47     48     1  0.0000000  9.6232000  2
     43     46     47     48     1  0.0000000  2.5104000  3
     43     46     47     68     1  0.0000000  0.0000000  1
     43     46     47     68     1  0.0000000  0.8368000  2
     43     46     47     68     1  0.0000000  0.0000000  3
     43     46     47     68     1  0.0000000  0.0000000  4
     43     46     47     68     1  0.0000000  0.0000000  5
     43     46     47     69     1  0.0000000  0.0000000  1
     43     46     47     69     1  0.0000000  0.8368000  2
     43     46     47     69     1  0.0000000  0.0000000  3
     43     46     47     69     1  0.0000000  0.0000000  4
     43     46     47     69     1  0.0000000  0.0000000  5
     41     43     46     47     1  180.0000771  -3.3472000  2
     41     43     46     47     1  0.0000000  0.0000000  3
     41     70     71     72     1  180.0000771  5.8576000  1
     41     70     71     72     1  180.0000771  11.2968000  2
     41     70     71    104     1  180.0000771  11.2968000  2
     38     41     43     46     1  180.0000771  3.3472000  1
     38     41     43     46     1  120.0000514  0.8368000  2
     38     41     43     46     1  60.0000257  1.6736000  3
     38     41     70     71     1  0.0000000  -0.4184000  1
     38     41     70     71     1  240.0001029  -1.2552000  2
     38     41     70     71     1  300.0001286  -0.8368000  3
     37     38     41     43     1  0.0000000  0.0000000  1
     37     38     41     43     1  0.0000000  0.0000000  2
     37     38     41     43     1  0.0000000  0.0000000  3
     37     38     41     43     1  0.0000000  0.0000000  4
     37     38     41     43     1  0.0000000  0.0000000  5
     37     38     41     70     1  180.0000771  -0.4184000  1
     37     38     41     70     1  0.0000000  1.2552000  2
     37     38     41     70     1  0.0000000  4.1840000  3
     36     35     37     38     1  180.0000771  5.8576000  1
     36     35     37     38     1  180.0000771  11.2968000  2
     35     37     38     41     1  0.0000000  -0.4184000  1
     35     37     38     41     1  240.0001029  -1.2552000  2
     35     37     38     41     1  300.0001286  -0.8368000  3
     95     98    101    104     1  0.0000000  0.4184000  1
     95     98    101    104     1  0.0000000  0.4184000  2
     95     98    101    104     1  0.0000000  1.2552000  3
     95     98    101    104     1  0.0000000  0.4184000  4
     95     98    101    104     1  0.0000000  0.4184000  5
     92     95     98    101     1  0.0000000  0.4184000  1
     92     95     98    101     1  0.0000000  0.4184000  2
     92     95     98    101     1  0.0000000  1.2552000  3
     92     95     98    101     1  0.0000000  0.4184000  4
     92     95     98    101     1  0.0000000  0.4184000  5
     89     92     95     98     1  0.0000000  0.4184000  1
     89     92     95     98     1  0.0000000  0.4184000  2
     89     92     95     98     1  0.0000000  1.2552000  3
     89     92     95     98     1  0.0000000  0.4184000  4
     89     92     95     98     1  0.0000000  0.4184000  5
     86     89     92     95     1  0.0000000  0.4184000  1
     86     89     92     95     1  0.0000000  0.4184000  2
     86     89     92     95     1  0.0000000  1.2552000  3
     86     89     92     95     1  0.0000000  0.4184000  4
     86     89     92     95     1  0.0000000  0.4184000  5
     83     86     89     92     1  0.0000000  0.4184000  1
     83     86     89     92     1  0.0000000  0.4184000  2
     83     86     89     92     1  0.0000000  1.2552000  3
     83     86     89     92     1  0.0000000  0.4184000  4
     83     86     89     92     1  0.0000000  0.4184000  5
     80     83     86     89     1  0.0000000  0.4184000  1
     80     83     86     89     1  0.0000000  0.4184000  2
     80     83     86     89     1  0.0000000  1.2552000  3
     80     83     86     89     1  0.0000000  0.4184000  4
     80     83     86     89     1  0.0000000  0.4184000  5
     77     80     83     86     1  0.0000000  0.4184000  1
     77     80     83     86     1  0.0000000  0.4184000  2
     77     80     83     86     1  0.0000000  1.2552000  3
     77     80     83     86     1  0.0000000  0.4184000  4
     77     80     83     86     1  0.0000000  0.4184000  5
     74     77     80     83     1  0.0000000  0.4184000  1
     74     77     80     83     1  0.0000000  0.4184000  2
     74     77     80     83     1  0.0000000  1.2552000  3
     74     77     80     83     1  0.0000000  0.4184000  4
     74     77     80     83     1  0.0000000  0.4184000  5
    104     72     71     70     4  180.0000771  43.9320000  2
     32     36     35     37     4  180.0000771  43.9320000  2
     34     32     35     36     1  0.0000000  3.3472000  1
     34     32     35     36     1  180.0000771  0.3347200  3
     34     32     35     37     1  180.0000771  0.0000000  2
     33     32     35     36     1  0.0000000  3.3472000  1
     33     32     35     36     1  180.0000771  0.3347200  3
     33     32     35     37     1  180.0000771  0.0000000  2
     31     29     32     34     1  0.0000000  0.6276000  3
     31     29     32     33     1  0.0000000  0.6276000  3
     31     29     32     35     1  0.0000000  0.6527040  3
     30     29     32     34     1  0.0000000  0.6276000  3
     30     29     32     33     1  0.0000000  0.6276000  3
     30     29     32     35     1  0.0000000  0.6527040  3
     28     26     29     32     1  0.0000000  0.6694400  3
     28     26     29     30     1  0.0000000  0.6276000  3
     28     26     29     31     1  0.0000000  0.6276000  3
     27     26     29     32     1  0.0000000  0.6694400  3
     27     26     29     30     1  0.0000000  0.6276000  3
     27     26     29     31     1  0.0000000  0.6276000  3
     26     29     32     34     1  0.0000000  0.6694400  3
     26     29     32     33     1  0.0000000  0.6694400  3
     25     23     26     29     1  0.0000000  0.6694400  3
     25     23     26     28     1  0.0000000  0.6276000  3
     25     23     26     27     1  0.0000000  0.6276000  3
     24     23     26     29     1  0.0000000  0.6694400  3
     24     23     26     28     1  0.0000000  0.6276000  3
     24     23     26     27     1  0.0000000  0.6276000  3
     23     26     29     30     1  0.0000000  0.6694400  3
     23     26     29     31     1  0.0000000  0.6694400  3
     22     20     23     26     1  0.0000000  0.6694400  3
     22     20     23     25     1  0.0000000  0.6276000  3
     22     20     23     24     1  0.0000000  0.6276000  3
     21     20     23     26     1  0.0000000  0.6694400  3
     21     20     23     25     1  0.0000000  0.6276000  3
     21     20     23     24     1  0.0000000  0.6276000  3
     20     23     26     28     1  0.0000000  0.6694400  3
     20     23     26     27     1  0.0000000  0.6694400  3
     19     17     20     23     1  0.0000000  0.6694400  3
     19     17     20     22     1  0.0000000  0.6276000  3
     19     17     20     21     1  0.0000000  0.6276000  3
     18     17     20     23     1  0.0000000  0.6694400  3
     18     17     20     22     1  0.0000000  0.6276000  3
     18     17     20     21     1  0.0000000  0.6276000  3
     17     20     23     25     1  0.0000000  0.6694400  3
     17     20     23     24     1  0.0000000  0.6694400  3
     16     14     17     20     1  0.0000000  0.6694400  3
     16     14     17     19     1  0.0000000  0.6276000  3
     16     14     17     18     1  0.0000000  0.6276000  3
     15     14     17     20     1  0.0000000  0.6694400  3
     15     14     17     19     1  0.0000000  0.6276000  3
     15     14     17     18     1  0.0000000  0.6276000  3
     14     17     20     22     1  0.0000000  0.6694400  3
     14     17     20     21     1  0.0000000  0.6694400  3
     13     11     14     17     1  0.0000000  0.6694400  3
     13     11     14     16     1  0.0000000  0.6276000  3
     13     11     14     15     1  0.0000000  0.6276000  3
     12     11     14     17     1  0.0000000  0.6694400  3
     12     11     14     16     1  0.0000000  0.6276000  3
     12     11     14     15     1  0.0000000  0.6276000  3
     11     14     17     19     1  0.0000000  0.6694400  3
     11     14     17     18     1  0.0000000  0.6694400  3
     10      8     11     14     1  0.0000000  0.6694400  3
     10      8     11     13     1  0.0000000  0.6276000  3
     10      8     11     12     1  0.0000000  0.6276000  3
      9      8     11     14     1  0.0000000  0.6694400  3
      9      8     11     13     1  0.0000000  0.6276000  3
      9      8     11     12     1  0.0000000  0.6276000  3
      8     11     14     16     1  0.0000000  0.6694400  3
      8     11     14     15     1  0.0000000  0.6694400  3
      7      5      8     11     1  0.0000000  0.6694400  3
      7      5      8     10     1  0.0000000  0.6276000  3
      7      5      8      9     1  0.0000000  0.6276000  3
      6      5      8     11     1  0.0000000  0.6694400  3
      6      5      8     10     1  0.0000000  0.6276000  3
      6      5      8      9     1  0.0000000  0.6276000  3
      5      8     11     13     1  0.0000000  0.6694400  3
      5      8     11     12     1  0.0000000  0.6694400  3
      4      2      5      8     1  0.0000000  0.6694400  3
      4      2      5      7     1  0.0000000  0.6276000  3
      4      2      5      6     1  0.0000000  0.6276000  3
      3      2      5      8     1  0.0000000  0.6694400  3
      3      2      5      7     1  0.0000000  0.6276000  3
      3      2      5      6     1  0.0000000  0.6276000  3
      2      5      8     10     1  0.0000000  0.6694400  3
      2      5      8      9     1  0.0000000  0.6694400  3
      1      2      5      8     1  0.0000000  0.6694400  3
      1      2      5      7     1  0.0000000  0.6276000  3
      1      2      5      6     1  0.0000000  0.6276000  3
     72     71    104    106     1  0.0000000  3.3472000  1
     72     71    104    106     1  180.0000771  0.3347200  3
     72     71    104    105     1  0.0000000  3.3472000  1
     72     71    104    105     1  180.0000771  0.3347200  3
     71    104    101    102     1  0.0000000  0.6527040  3
     71    104    101    103     1  0.0000000  0.6527040  3
     70     71    104    106     1  180.0000771  0.0000000  2
     70     71    104    105     1  180.0000771  0.0000000  2
     63     60     55     64     1  0.0000000  0.6527040  3
     62     60     55     64     1  0.0000000  0.6527040  3
     61     60     55     64     1  0.0000000  0.6527040  3
     60     55     64     65     1  0.0000000  0.6527040  3
     60     55     64     66     1  0.0000000  0.6527040  3
     60     55     64     67     1  0.0000000  0.6527040  3
     59     56     55     60     1  0.0000000  0.6527040  3
     59     56     55     64     1  0.0000000  0.6527040  3
     58     56     55     60     1  0.0000000  0.6527040  3
     58     56     55     64     1  0.0000000  0.6527040  3
     57     56     55     60     1  0.0000000  0.6527040  3
     57     56     55     64     1  0.0000000  0.6527040  3
     56     55     60     61     1  0.0000000  0.6527040  3
     56     55     60     62     1  0.0000000  0.6527040  3
     56     55     60     63     1  0.0000000  0.6527040  3
     56     55     64     65     1  0.0000000  0.6527040  3
     56     55     64     66     1  0.0000000  0.6527040  3
     56     55     64     67     1  0.0000000  0.6527040  3
     54     52     55     56     1  0.0000000  0.6527040  3
     54     52     55     60     1  0.0000000  0.6527040  3
     54     52     55     64     1  0.0000000  0.6527040  3
     53     52     55     56     1  0.0000000  0.6527040  3
     53     52     55     60     1  0.0000000  0.6527040  3
     53     52     55     64     1  0.0000000  0.6527040  3
     52     55     56     57     1  0.0000000  0.6527040  3
     52     55     56     58     1  0.0000000  0.6527040  3
     52     55     56     59     1  0.0000000  0.6527040  3
     52     55     60     61     1  0.0000000  0.6527040  3
     52     55     60     62     1  0.0000000  0.6527040  3
     52     55     60     63     1  0.0000000  0.6527040  3
     52     55     64     65     1  0.0000000  0.6527040  3
     52     55     64     66     1  0.0000000  0.6527040  3
     52     55     64     67     1  0.0000000  0.6527040  3
     51     49     52     53     1  0.0000000  0.6527040  3
     51     49     52     54     1  0.0000000  0.6527040  3
     51     49     52     55     1  0.0000000  0.6527040  3
     50     49     52     53     1  0.0000000  0.6527040  3
     50     49     52     54     1  0.0000000  0.6527040  3
     50     49     52     55     1  0.0000000  0.6527040  3
     48     49     52     53     1  0.0000000  0.6527040  3
     48     49     52     54     1  0.0000000  0.6527040  3
     47     48     49     50     1  0.0000000  0.0000000  1
     47     48     49     50     1  0.0000000  0.0000000  2
     47     48     49     50     1  0.0000000  1.6024720  3
     47     48     49     50     1  0.0000000  0.0000000  4
     47     48     49     50     1  0.0000000  0.0000000  5
     47     48     49     51     1  0.0000000  0.0000000  1
     47     48     49     51     1  0.0000000  0.0000000  2
     47     48     49     51     1  0.0000000  1.6024720  3
     47     48     49     51     1  0.0000000  0.0000000  4
     47     48     49     51     1  0.0000000  0.0000000  5
     45     43     41     70     1  0.0000000  1.0460000  1
     45     43     41     70     1  0.0000000  0.0000000  3
     45     43     46     47     1  0.0000000  0.0000000  1
     45     43     46     47     1  0.0000000  0.0000000  2
     45     43     46     47     1  0.0000000  1.6024720  3
     45     43     46     47     1  0.0000000  0.0000000  4
     45     43     46     47     1  0.0000000  0.0000000  5
     44     43     41     70     1  0.0000000  1.0460000  1
     44     43     41     70     1  0.0000000  0.0000000  3
     44     43     46     47     1  0.0000000  0.0000000  1
     44     43     46     47     1  0.0000000  0.0000000  2
     44     43     46     47     1  0.0000000  1.6024720  3
     44     43     46     47     1  0.0000000  0.0000000  4
     44     43     46     47     1  0.0000000  0.0000000  5
     42     41     43     44     1  0.0000000  0.6527040  3
     42     41     43     45     1  0.0000000  0.6527040  3
     42     41     43     46     1  0.0000000  1.0460000  1
     42     41     43     46     1  0.0000000  0.0000000  3
     42     41     70     71     1  0.0000000  1.6024720  3
     40     38     41     42     1  0.0000000  0.6527040  3
     40     38     41     43     1  0.0000000  0.6527040  3
     40     38     41     70     1  0.0000000  1.0460000  1
     40     38     41     70     1  0.0000000  0.0000000  3
     39     38     41     42     1  0.0000000  0.6527040  3
     39     38     41     43     1  0.0000000  0.6527040  3
     39     38     41     70     1  0.0000000  1.0460000  1
     39     38     41     70     1  0.0000000  0.0000000  3
     38     41     43     44     1  0.0000000  0.6527040  3
     38     41     43     45     1  0.0000000  0.6527040  3
     37     38     41     42     1  0.0000000  1.0460000  1
     37     38     41     42     1  0.0000000  0.0000000  3
     35     37     38     39     1  0.0000000  1.6024720  3
     35     37     38     40     1  0.0000000  1.6024720  3
    103    101    104    106     1  0.0000000  0.6276000  3
    103    101    104    105     1  0.0000000  0.6276000  3
    102    101    104    106     1  0.0000000  0.6276000  3
    102    101    104    105     1  0.0000000  0.6276000  3
    100     98    101    104     1  0.0000000  0.6694400  3
    100     98    101    102     1  0.0000000  0.6276000  3
    100     98    101    103     1  0.0000000  0.6276000  3
     99     98    101    104     1  0.0000000  0.6694400  3
     99     98    101    102     1  0.0000000  0.6276000  3
     99     98    101    103     1  0.0000000  0.6276000  3
     98    101    104    106     1  0.0000000  0.6694400  3
     98    101    104    105     1  0.0000000  0.6694400  3
     97     95     98    101     1  0.0000000  0.6694400  3
     97     95     98    100     1  0.0000000  0.6276000  3
     97     95     98     99     1  0.0000000  0.6276000  3
     96     95     98    101     1  0.0000000  0.6694400  3
     96     95     98    100     1  0.0000000  0.6276000  3
     96     95     98     99     1  0.0000000  0.6276000  3
     95     98    101    102     1  0.0000000  0.6694400  3
     95     98    101    103     1  0.0000000  0.6694400  3
     94     92     95     98     1  0.0000000  0.6694400  3
     94     92     95     97     1  0.0000000  0.6276000  3
     94     92     95     96     1  0.0000000  0.6276000  3
     93     92     95     98     1  0.0000000  0.6694400  3
     93     92     95     97     1  0.0000000  0.6276000  3
     93     92     95     96     1  0.0000000  0.6276000  3
     92     95     98    100     1  0.0000000  0.6694400  3
     92     95     98     99     1  0.0000000  0.6694400  3
     91     89     92     95     1  0.0000000  0.6694400  3
     91     89     92     94     1  0.0000000  0.6276000  3
     91     89     92     93     1  0.0000000  0.6276000  3
     90     89     92     95     1  0.0000000  0.6694400  3
     90     89     92     94     1  0.0000000  0.6276000  3
     90     89     92     93     1  0.0000000  0.6276000  3
     89     92     95     97     1  0.0000000  0.6694400  3
     89     92     95     96     1  0.0000000  0.6694400  3
     88     86     89     92     1  0.0000000  0.6694400  3
     88     86     89     91     1  0.0000000  0.6276000  3
     88     86     89     90     1  0.0000000  0.6276000  3
     87     86     89     92     1  0.0000000  0.6694400  3
     87     86     89     91     1  0.0000000  0.6276000  3
     87     86     89     90     1  0.0000000  0.6276000  3
     86     89     92     94     1  0.0000000  0.6694400  3
     86     89     92     93     1  0.0000000  0.6694400  3
     85     83     86     89     1  0.0000000  0.6694400  3
     85     83     86     88     1  0.0000000  0.6276000  3
     85     83     86     87     1  0.0000000  0.6276000  3
     84     83     86     89     1  0.0000000  0.6694400  3
     84     83     86     88     1  0.0000000  0.6276000  3
     84     83     86     87     1  0.0000000  0.6276000  3
     83     86     89     91     1  0.0000000  0.6694400  3
     83     86     89     90     1  0.0000000  0.6694400  3
     82     80     83     86     1  0.0000000  0.6694400  3
     82     80     83     85     1  0.0000000  0.6276000  3
     82     80     83     84     1  0.0000000  0.6276000  3
     81     80     83     86     1  0.0000000  0.6694400  3
     81     80     83     85     1  0.0000000  0.6276000  3
     81     80     83     84     1  0.0000000  0.6276000  3
     80     83     86     88     1  0.0000000  0.6694400  3
     80     83     86     87     1  0.0000000  0.6694400  3
     79     77     80     83     1  0.0000000  0.6694400  3
     79     77     80     82     1  0.0000000  0.6276000  3
     79     77     80     81     1  0.0000000  0.6276000  3
     78     77     80     83     1  0.0000000  0.6694400  3
     78     77     80     82     1  0.0000000  0.6276000  3
     78     77     80     81     1  0.0000000  0.6276000  3
     77     80     83     85     1  0.0000000  0.6694400  3
     77     80     83     84     1  0.0000000  0.6694400  3
     76     74     77     80     1  0.0000000  0.6694400  3
     76     74     77     79     1  0.0000000  0.6276000  3
     76     74     77     78     1  0.0000000  0.6276000  3
     75     74     77     80     1  0.0000000  0.6694400  3
     75     74     77     79     1  0.0000000  0.6276000  3
     75     74     77     78     1  0.0000000  0.6276000  3
     74     77     80     82     1  0.0000000  0.6694400  3
     74     77     80     81     1  0.0000000  0.6694400  3
     73     74     77     80     1  0.0000000  0.6694400  3
     73     74     77     79     1  0.0000000  0.6276000  3
     73     74     77     78     1  0.0000000  0.6276000  3
