; Exact Amber Lipid21 v1.0 topology converted by ParmEd
; Explicit [pairs] preserve Lipid21-specific 1-4 scaling.

[ moleculetype ]
; Name nrexcl
DMPC 3

[ atoms ]
; nr type resnr residue atom cgnr charge mass
1 L21_hL 1 DMPC H14Z 1 0.02551100 1.008000
2 L21_cD 1 DMPC C14X 2 -0.11171200 12.010000
3 L21_hL 1 DMPC H14X 3 0.02551100 1.008000
4 L21_hL 1 DMPC H14Y 4 0.02551100 1.008000
5 L21_cD 1 DMPC C13X 5 0.01746300 12.010000
6 L21_hL 1 DMPC H13X 6 0.00753100 1.008000
7 L21_hL 1 DMPC H13Y 7 0.00753100 1.008000
8 L21_cD 1 DMPC C12X 8 -0.02809400 12.010000
9 L21_hL 1 DMPC H12X 9 0.01720800 1.008000
10 L21_hL 1 DMPC H12Y 10 0.01720800 1.008000
11 L21_cD 1 DMPC C11X 11 -0.03178700 12.010000
12 L21_hL 1 DMPC H11X 12 0.01267700 1.008000
13 L21_hL 1 DMPC H11Y 13 0.01267700 1.008000
14 L21_cD 1 DMPC C10X 14 -0.02102500 12.010000
15 L21_hL 1 DMPC H10X 15 0.01003700 1.008000
16 L21_hL 1 DMPC H10Y 16 0.01003700 1.008000
17 L21_cD 1 DMPC C9X 17 -0.01465300 12.010000
18 L21_hL 1 DMPC H9X 18 0.01017200 1.008000
19 L21_hL 1 DMPC H9Y 19 0.01017200 1.008000
20 L21_cD 1 DMPC C8X 20 -0.02645100 12.010000
21 L21_hL 1 DMPC H8X 21 0.01124100 1.008000
22 L21_hL 1 DMPC H8Y 22 0.01124100 1.008000
23 L21_cD 1 DMPC C7X 23 -0.00438600 12.010000
24 L21_hL 1 DMPC H7X 24 0.00683300 1.008000
25 L21_hL 1 DMPC H7Y 25 0.00683300 1.008000
26 L21_cD 1 DMPC C6X 26 -0.02781200 12.010000
27 L21_hL 1 DMPC H6X 27 0.01151100 1.008000
28 L21_hL 1 DMPC H6Y 28 0.01151100 1.008000
29 L21_cD 1 DMPC C5X 29 -0.01652100 12.010000
30 L21_hL 1 DMPC H5X 30 0.01057300 1.008000
31 L21_hL 1 DMPC H5Y 31 0.01057300 1.008000
32 L21_cD 1 DMPC C4X 32 -0.02695400 12.010000
33 L21_hL 1 DMPC H4X 33 0.02043100 1.008000
34 L21_hL 1 DMPC H4Y 34 0.02043100 1.008000
35 L21_cD 1 DMPC C3X 35 -0.00243500 12.010000
36 L21_hL 1 DMPC H3X 36 0.01885900 1.008000
37 L21_hL 1 DMPC H3Y 37 0.01885900 1.008000
38 L21_cD 1 DMPC C2X 38 -0.16420000 12.010000
39 L21_hL 1 DMPC H2X 39 0.05394400 1.008000
40 L21_hL 1 DMPC H2Y 40 0.05394400 1.008000
41 L21_cC 1 DMPC C11 41 0.91040300 12.010000
42 L21_oC 1 DMPC O12 42 -0.67156600 16.000000
43 L21_oS 1 DMPC O11 43 -0.57548900 16.000000
44 L21_cA 1 DMPC C1 44 0.19693900 12.010000
45 L21_hE 1 DMPC HR 45 0.07046900 1.008000
46 L21_hE 1 DMPC HS 46 0.07046900 1.008000
47 L21_cA 1 DMPC C2 47 0.28124200 12.010000
48 L21_hE 1 DMPC HX 48 0.06325300 1.008000
49 L21_cA 1 DMPC C3 49 0.01745900 12.010000
50 L21_hE 1 DMPC HA 50 0.09559100 1.008000
51 L21_hE 1 DMPC HB 51 0.09559100 1.008000
52 L21_oT 1 DMPC O31 52 -0.50948000 16.000000
53 L21_pA 1 DMPC P31 53 1.33972100 30.970000
54 L21_oT 1 DMPC O32 54 -0.50817600 16.000000
55 L21_cA 1 DMPC C31 55 0.16680100 12.010000
56 L21_hE 1 DMPC H1A 56 0.07853400 1.008000
57 L21_hE 1 DMPC H1B 57 0.07853400 1.008000
58 L21_cA 1 DMPC C32 58 -0.17082400 12.010000
59 L21_hX 1 DMPC H2A 59 0.13641500 1.008000
60 L21_hX 1 DMPC H2B 60 0.13641500 1.008000
61 L21_nA 1 DMPC N31 61 0.24526200 14.010000
62 L21_cA 1 DMPC C33 62 -0.33897300 12.010000
63 L21_hX 1 DMPC H3A 63 0.17223000 1.008000
64 L21_hX 1 DMPC H3B 64 0.17223000 1.008000
65 L21_hX 1 DMPC H3C 65 0.17223000 1.008000
66 L21_cA 1 DMPC C34 66 -0.33897300 12.010000
67 L21_hX 1 DMPC H4A 67 0.17223000 1.008000
68 L21_hX 1 DMPC H4B 68 0.17223000 1.008000
69 L21_hX 1 DMPC H4C 69 0.17223000 1.008000
70 L21_cA 1 DMPC C35 70 -0.33897300 12.010000
71 L21_hX 1 DMPC H5A 71 0.17223000 1.008000
72 L21_hX 1 DMPC H5B 72 0.17223000 1.008000
73 L21_hX 1 DMPC H5C 73 0.17223000 1.008000
74 L21_oP 1 DMPC O33 74 -0.87581200 16.000000
75 L21_oP 1 DMPC O34 75 -0.87581200 16.000000
76 L21_oS 1 DMPC O21 76 -0.55294800 16.000000
77 L21_cC 1 DMPC C21 77 0.89761300 12.010000
78 L21_oC 1 DMPC O22 78 -0.67375500 16.000000
79 L21_hL 1 DMPC H14W 79 0.02551100 1.008000
80 L21_cD 1 DMPC C14Y 80 -0.11171200 12.010000
81 L21_hL 1 DMPC H14U 81 0.02551100 1.008000
82 L21_hL 1 DMPC H14V 82 0.02551100 1.008000
83 L21_cD 1 DMPC C13Y 83 0.01746300 12.010000
84 L21_hL 1 DMPC H13U 84 0.00753100 1.008000
85 L21_hL 1 DMPC H13V 85 0.00753100 1.008000
86 L21_cD 1 DMPC C12Y 86 -0.02809400 12.010000
87 L21_hL 1 DMPC H12U 87 0.01720800 1.008000
88 L21_hL 1 DMPC H12V 88 0.01720800 1.008000
89 L21_cD 1 DMPC C11Y 89 -0.03178700 12.010000
90 L21_hL 1 DMPC H11U 90 0.01267700 1.008000
91 L21_hL 1 DMPC H11V 91 0.01267700 1.008000
92 L21_cD 1 DMPC C10Y 92 -0.02102500 12.010000
93 L21_hL 1 DMPC H10U 93 0.01003700 1.008000
94 L21_hL 1 DMPC H10V 94 0.01003700 1.008000
95 L21_cD 1 DMPC C9Y 95 -0.01465300 12.010000
96 L21_hL 1 DMPC H9U 96 0.01017200 1.008000
97 L21_hL 1 DMPC H9V 97 0.01017200 1.008000
98 L21_cD 1 DMPC C8Y 98 -0.02645100 12.010000
99 L21_hL 1 DMPC H8U 99 0.01124100 1.008000
100 L21_hL 1 DMPC H8V 100 0.01124100 1.008000
101 L21_cD 1 DMPC C7Y 101 -0.00438600 12.010000
102 L21_hL 1 DMPC H7U 102 0.00683300 1.008000
103 L21_hL 1 DMPC H7V 103 0.00683300 1.008000
104 L21_cD 1 DMPC C6Y 104 -0.02781200 12.010000
105 L21_hL 1 DMPC H6U 105 0.01151100 1.008000
106 L21_hL 1 DMPC H6V 106 0.01151100 1.008000
107 L21_cD 1 DMPC C5Y 107 -0.01652100 12.010000
108 L21_hL 1 DMPC H5U 108 0.01057300 1.008000
109 L21_hL 1 DMPC H5V 109 0.01057300 1.008000
110 L21_cD 1 DMPC C4Y 110 -0.02695400 12.010000
111 L21_hL 1 DMPC H4U 111 0.02043100 1.008000
112 L21_hL 1 DMPC H4V 112 0.02043100 1.008000
113 L21_cD 1 DMPC C3Y 113 -0.00243500 12.010000
114 L21_hL 1 DMPC H3U 114 0.01885900 1.008000
115 L21_hL 1 DMPC H3V 115 0.01885900 1.008000
116 L21_cD 1 DMPC C2Y 116 -0.16420000 12.010000
117 L21_hL 1 DMPC H2U 117 0.05394400 1.008000
118 L21_hL 1 DMPC H2V 118 0.05394400 1.008000

[ bonds ]
;    ai     aj funct         c0         c1         c2         c3
     38     41     1   0.15080 274721.440000
     35     38     1   0.15350 253634.080000
     32     35     1   0.15350 253634.080000
     29     32     1   0.15350 253634.080000
     26     29     1   0.15350 253634.080000
     23     26     1   0.15350 253634.080000
     20     23     1   0.15350 253634.080000
     17     20     1   0.15350 253634.080000
     14     17     1   0.15350 253634.080000
     11     14     1   0.15350 253634.080000
      8     11     1   0.15350 253634.080000
      5      8     1   0.15350 253634.080000
      2      5     1   0.15350 253634.080000
     77     78     1   0.12140 542246.400000
     77    116     1   0.15080 274721.440000
     76     77     1   0.13430 344175.840000
     61     62     1   0.14990 245684.480000
     61     66     1   0.14990 245684.480000
     61     70     1   0.14990 245684.480000
     58     61     1   0.14990 245684.480000
     55     58     1   0.15350 253634.080000
     54     55     1   0.14390 252295.200000
     53     54     1   0.16100 192464.000000
     53     74     1   0.14800 439320.000000
     53     75     1   0.14800 439320.000000
     52     53     1   0.16100 192464.000000
     49     52     1   0.14390 252295.200000
     47     49     1   0.15350 253634.080000
     47     76     1   0.14390 252295.200000
     44     47     1   0.15350 253634.080000
     43     44     1   0.14390 252295.200000
     41     42     1   0.12140 542246.400000
     41     43     1   0.13430 344175.840000
    113    116     1   0.15350 253634.080000
    110    113     1   0.15350 253634.080000
    107    110     1   0.15350 253634.080000
    104    107     1   0.15350 253634.080000
    101    104     1   0.15350 253634.080000
     98    101     1   0.15350 253634.080000
     95     98     1   0.15350 253634.080000
     92     95     1   0.15350 253634.080000
     89     92     1   0.15350 253634.080000
     86     89     1   0.15350 253634.080000
     83     86     1   0.15350 253634.080000
     80     83     1   0.15350 253634.080000
     38     40     1   0.10920 282252.640000
     38     39     1   0.10920 282252.640000
     35     37     1   0.10920 282252.640000
     35     36     1   0.10920 282252.640000
     32     34     1   0.10920 282252.640000
     32     33     1   0.10920 282252.640000
     29     30     1   0.10920 282252.640000
     29     31     1   0.10920 282252.640000
     26     27     1   0.10920 282252.640000
     26     28     1   0.10920 282252.640000
     23     24     1   0.10920 282252.640000
     23     25     1   0.10920 282252.640000
     20     22     1   0.10920 282252.640000
     20     21     1   0.10920 282252.640000
     17     18     1   0.10920 282252.640000
     17     19     1   0.10920 282252.640000
     14     16     1   0.10920 282252.640000
     14     15     1   0.10920 282252.640000
     11     12     1   0.10920 282252.640000
     11     13     1   0.10920 282252.640000
      8     10     1   0.10920 282252.640000
      8      9     1   0.10920 282252.640000
      5      6     1   0.10920 282252.640000
      5      7     1   0.10920 282252.640000
      2      3     1   0.10920 282252.640000
      2      4     1   0.10920 282252.640000
      1      2     1   0.10920 282252.640000
     70     71     1   0.10910 283424.160000
     70     72     1   0.10910 283424.160000
     70     73     1   0.10910 283424.160000
     66     67     1   0.10910 283424.160000
     66     68     1   0.10910 283424.160000
     66     69     1   0.10910 283424.160000
     62     63     1   0.10910 283424.160000
     62     64     1   0.10910 283424.160000
     62     65     1   0.10910 283424.160000
     58     59     1   0.10910 283424.160000
     58     60     1   0.10910 283424.160000
     55     56     1   0.10930 281081.120000
     55     57     1   0.10930 281081.120000
     49     50     1   0.10930 281081.120000
     49     51     1   0.10930 281081.120000
     47     48     1   0.10930 281081.120000
     44     45     1   0.10930 281081.120000
     44     46     1   0.10930 281081.120000
    116    118     1   0.10920 282252.640000
    116    117     1   0.10920 282252.640000
    113    115     1   0.10920 282252.640000
    113    114     1   0.10920 282252.640000
    110    112     1   0.10920 282252.640000
    110    111     1   0.10920 282252.640000
    107    108     1   0.10920 282252.640000
    107    109     1   0.10920 282252.640000
    104    105     1   0.10920 282252.640000
    104    106     1   0.10920 282252.640000
    101    102     1   0.10920 282252.640000
    101    103     1   0.10920 282252.640000
     98    100     1   0.10920 282252.640000
     98     99     1   0.10920 282252.640000
     95     96     1   0.10920 282252.640000
     95     97     1   0.10920 282252.640000
     92     94     1   0.10920 282252.640000
     92     93     1   0.10920 282252.640000
     89     90     1   0.10920 282252.640000
     89     91     1   0.10920 282252.640000
     86     88     1   0.10920 282252.640000
     86     87     1   0.10920 282252.640000
     83     84     1   0.10920 282252.640000
     83     85     1   0.10920 282252.640000
     80     81     1   0.10920 282252.640000
     80     82     1   0.10920 282252.640000
     79     80     1   0.10920 282252.640000


[ pairs ]
;    ai     aj funct         c0         c1         c2         c3
     38     44     1
     35     42     1
     35     43     1
     32     41     1
     29     38     1
     26     35     1
     23     32     1
     20     29     1
     17     26     1
     14     23     1
     11     20     1
      8     17     1
      5     14     1
      2     11     1
     78    113     1
     77    110     1
     76    113     1
     55     74     1
     55     75     1
     55     62     1
     55     66     1
     55     70     1
     54     61     1
     53     58     1
     52     76     1
     52     55     1
     49     77     1
     49     54     1
     49     74     1
     49     75     1
     47     53     1
     47     78     1
     47    116     1
     44     52     1
     44     77     1
     43     49     1
     43     76     1
     42     44     1
     41     47     1
    107    116     1
    104    113     1
    101    110     1
     98    107     1
     95    104     1
     92    101     1
     89     98     1
     86     95     1
     83     92     1
     80     89     1
     40     42     1
     40     43     1
     39     42     1
     39     43     1
     37     40     1
     37     39     1
     37     41     1
     36     40     1
     36     39     1
     36     41     1
     34     38     1
     34     37     1
     34     36     1
     33     38     1
     33     37     1
     33     36     1
     32     40     1
     32     39     1
     31     35     1
     31     34     1
     31     33     1
     30     35     1
     30     34     1
     30     33     1
     29     37     1
     29     36     1
     28     32     1
     28     30     1
     28     31     1
     27     32     1
     27     30     1
     27     31     1
     26     34     1
     26     33     1
     25     29     1
     25     27     1
     25     28     1
     24     29     1
     24     27     1
     24     28     1
     23     30     1
     23     31     1
     22     26     1
     22     24     1
     22     25     1
     21     26     1
     21     24     1
     21     25     1
     20     27     1
     20     28     1
     19     23     1
     19     22     1
     19     21     1
     18     23     1
     18     22     1
     18     21     1
     17     24     1
     17     25     1
     16     20     1
     16     18     1
     16     19     1
     15     20     1
     15     18     1
     15     19     1
     14     22     1
     14     21     1
     13     17     1
     13     16     1
     13     15     1
     12     17     1
     12     16     1
     12     15     1
     11     18     1
     11     19     1
     10     14     1
     10     12     1
     10     13     1
      9     14     1
      9     12     1
      9     13     1
      8     16     1
      8     15     1
      7     11     1
      7     10     1
      7      9     1
      6     11     1
      6     10     1
      6      9     1
      5     12     1
      5     13     1
      4      8     1
      4      6     1
      4      7     1
      3      8     1
      3      6     1
      3      7     1
      2     10     1
      2      9     1
      1      8     1
      1      6     1
      1      7     1
     78    118     1
     78    117     1
     77    115     1
     77    114     1
     76    118     1
     76    117     1
     69     70     1
     68     70     1
     67     70     1
     66     71     1
     66     72     1
     66     73     1
     65     66     1
     65     70     1
     64     66     1
     64     70     1
     63     66     1
     63     70     1
     62     67     1
     62     68     1
     62     69     1
     62     71     1
     62     72     1
     62     73     1
     60     62     1
     60     66     1
     60     70     1
     59     62     1
     59     66     1
     59     70     1
     58     63     1
     58     64     1
     58     65     1
     58     67     1
     58     68     1
     58     69     1
     58     71     1
     58     72     1
     58     73     1
     57     59     1
     57     60     1
     57     61     1
     56     59     1
     56     60     1
     56     61     1
     54     59     1
     54     60     1
     53     56     1
     53     57     1
     51     76     1
     51     53     1
     50     76     1
     50     53     1
     48     50     1
     48     51     1
     48     52     1
     48     77     1
     46     48     1
     46     49     1
     46     76     1
     45     48     1
     45     49     1
     45     76     1
     44     50     1
     44     51     1
     43     48     1
     41     45     1
     41     46     1
    115    118     1
    115    117     1
    114    118     1
    114    117     1
    112    116     1
    112    115     1
    112    114     1
    111    116     1
    111    115     1
    111    114     1
    110    118     1
    110    117     1
    109    113     1
    109    112     1
    109    111     1
    108    113     1
    108    112     1
    108    111     1
    107    115     1
    107    114     1
    106    110     1
    106    108     1
    106    109     1
    105    110     1
    105    108     1
    105    109     1
    104    112     1
    104    111     1
    103    107     1
    103    105     1
    103    106     1
    102    107     1
    102    105     1
    102    106     1
    101    108     1
    101    109     1
    100    104     1
    100    102     1
    100    103     1
     99    104     1
     99    102     1
     99    103     1
     98    105     1
     98    106     1
     97    101     1
     97    100     1
     97     99     1
     96    101     1
     96    100     1
     96     99     1
     95    102     1
     95    103     1
     94     98     1
     94     96     1
     94     97     1
     93     98     1
     93     96     1
     93     97     1
     92    100     1
     92     99     1
     91     95     1
     91     94     1
     91     93     1
     90     95     1
     90     94     1
     90     93     1
     89     96     1
     89     97     1
     88     92     1
     88     90     1
     88     91     1
     87     92     1
     87     90     1
     87     91     1
     86     94     1
     86     93     1
     85     89     1
     85     88     1
     85     87     1
     84     89     1
     84     88     1
     84     87     1
     83     90     1
     83     91     1
     82     86     1
     82     84     1
     82     85     1
     81     86     1
     81     84     1
     81     85     1
     80     88     1
     80     87     1
     79     86     1
     79     84     1
     79     85     1


[ angles ]
;    ai     aj     ak funct         c0         c1         c2         c3
     38     41     42     1   123.1100526 569.275040
     38     41     43     1   111.9600481 579.567680
     35     38     41     1   110.5300474 533.794720
     32     35     38     1   112.0500483 394.969600
     29     32     35     1   112.0500483 394.969600
     26     29     32     1   112.0500483 394.969600
     23     26     29     1   112.0500483 394.969600
     20     23     26     1   112.0500483 394.969600
     17     20     23     1   112.0500483 394.969600
     14     17     20     1   112.0500483 394.969600
     11     14     17     1   112.0500483 394.969600
      8     11     14     1   112.0500483 394.969600
      5      8     11     1   112.0500483 394.969600
      2      5      8     1   112.0500483 394.969600
     78     77    116     1   123.1100526 569.275040
     77    116    113     1   110.5300474 533.794720
     76     77     78     1   123.3300529 635.382240
     76     77    116     1   111.9600481 579.567680
     74     53     75     1   119.9000514 1171.520000
     66     61     70     1   110.6400473 525.845120
     62     61     66     1   110.6400473 525.845120
     62     61     70     1   110.6400473 525.845120
     58     61     62     1   110.6400473 525.845120
     58     61     66     1   110.6400473 525.845120
     58     61     70     1   110.6400473 525.845120
     55     58     61     1   114.3200492 539.317600
     54     53     74     1   108.2300464 836.800000
     54     53     75     1   108.2300464 836.800000
     54     55     58     1   108.4200467 567.183040
     53     54     55     1   120.5000516 836.800000
     52     53     54     1   102.6000440 753.120000
     52     53     74     1   108.2300464 836.800000
     52     53     75     1   108.2300464 836.800000
     49     47     76     1   108.4200467 567.183040
     49     52     53     1   120.5000516 836.800000
     47     49     52     1   108.4200467 567.183040
     47     76     77     1   115.1400492 532.455840
     44     47     49     1   110.6300475 528.941280
     44     47     76     1   108.4200467 567.183040
     43     44     47     1   108.4200467 567.183040
     42     41     43     1   123.3300529 635.382240
     41     43     44     1   115.1400492 532.455840
    110    113    116     1   112.0500483 394.969600
    107    110    113     1   112.0500483 394.969600
    104    107    110     1   112.0500483 394.969600
    101    104    107     1   112.0500483 394.969600
     98    101    104     1   112.0500483 394.969600
     95     98    101     1   112.0500483 394.969600
     92     95     98     1   112.0500483 394.969600
     89     92     95     1   112.0500483 394.969600
     86     89     92     1   112.0500483 394.969600
     83     86     89     1   112.0500483 394.969600
     80     83     86     1   112.0500483 394.969600
     40     38     41     1   109.6800468 394.969600
     39     38     40     1   108.3500467 329.950240
     39     38     41     1   109.6800468 394.969600
     37     35     38     1   110.0500475 388.024160
     36     35     38     1   110.0500475 388.024160
     36     35     37     1   108.3500467 329.950240
     35     38     40     1   110.0500475 388.024160
     35     38     39     1   110.0500475 388.024160
     34     32     35     1   110.0500475 388.024160
     33     32     35     1   110.0500475 388.024160
     33     32     34     1   108.3500467 329.950240
     32     35     37     1   110.0500475 388.024160
     32     35     36     1   110.0500475 388.024160
     31     29     32     1   110.0500475 388.024160
     30     29     32     1   110.0500475 388.024160
     30     29     31     1   108.3500467 329.950240
     29     32     34     1   110.0500475 388.024160
     29     32     33     1   110.0500475 388.024160
     28     26     29     1   110.0500475 388.024160
     27     26     29     1   110.0500475 388.024160
     27     26     28     1   108.3500467 329.950240
     26     29     30     1   110.0500475 388.024160
     26     29     31     1   110.0500475 388.024160
     25     23     26     1   110.0500475 388.024160
     24     23     26     1   110.0500475 388.024160
     24     23     25     1   108.3500467 329.950240
     23     26     27     1   110.0500475 388.024160
     23     26     28     1   110.0500475 388.024160
     22     20     23     1   110.0500475 388.024160
     21     20     23     1   110.0500475 388.024160
     21     20     22     1   108.3500467 329.950240
     20     23     24     1   110.0500475 388.024160
     20     23     25     1   110.0500475 388.024160
     19     17     20     1   110.0500475 388.024160
     18     17     20     1   110.0500475 388.024160
     18     17     19     1   108.3500467 329.950240
     17     20     22     1   110.0500475 388.024160
     17     20     21     1   110.0500475 388.024160
     16     14     17     1   110.0500475 388.024160
     15     14     17     1   110.0500475 388.024160
     15     14     16     1   108.3500467 329.950240
     14     17     18     1   110.0500475 388.024160
     14     17     19     1   110.0500475 388.024160
     13     11     14     1   110.0500475 388.024160
     12     11     14     1   110.0500475 388.024160
     12     11     13     1   108.3500467 329.950240
     11     14     16     1   110.0500475 388.024160
     11     14     15     1   110.0500475 388.024160
     10      8     11     1   110.0500475 388.024160
      9      8     11     1   110.0500475 388.024160
      9      8     10     1   108.3500467 329.950240
      8     11     12     1   110.0500475 388.024160
      8     11     13     1   110.0500475 388.024160
      7      5      8     1   110.0500475 388.024160
      6      5      8     1   110.0500475 388.024160
      6      5      7     1   108.3500467 329.950240
      5      8     10     1   110.0500475 388.024160
      5      8      9     1   110.0500475 388.024160
      4      2      5     1   110.0500475 388.024160
      3      2      5     1   110.0500475 388.024160
      3      2      4     1   108.3500467 329.950240
      2      5      6     1   110.0500475 388.024160
      2      5      7     1   110.0500475 388.024160
      1      2      5     1   110.0500475 388.024160
      1      2      3     1   108.3500467 329.950240
      1      2      4     1   108.3500467 329.950240
     77    116    118     1   109.6800468 394.969600
     77    116    117     1   109.6800468 394.969600
     72     70     73     1   110.7400473 326.686720
     71     70     72     1   110.7400473 326.686720
     71     70     73     1   110.7400473 326.686720
     68     66     69     1   110.7400473 326.686720
     67     66     68     1   110.7400473 326.686720
     67     66     69     1   110.7400473 326.686720
     64     62     65     1   110.7400473 326.686720
     63     62     64     1   110.7400473 326.686720
     63     62     65     1   110.7400473 326.686720
     61     62     63     1   107.9100461 410.199360
     61     62     64     1   107.9100461 410.199360
     61     62     65     1   107.9100461 410.199360
     61     66     67     1   107.9100461 410.199360
     61     66     68     1   107.9100461 410.199360
     61     66     69     1   107.9100461 410.199360
     61     70     71     1   107.9100461 410.199360
     61     70     72     1   107.9100461 410.199360
     61     70     73     1   107.9100461 410.199360
     60     58     61     1   107.9100461 410.199360
     59     58     60     1   110.7400473 326.686720
     59     58     61     1   107.9100461 410.199360
     57     55     58     1   110.0700471 387.940480
     56     55     57     1   109.5500472 327.858240
     56     55     58     1   110.0700471 387.940480
     55     58     59     1   111.7400478 385.095360
     55     58     60     1   111.7400478 385.095360
     54     55     56     1   108.8200469 425.429120
     54     55     57     1   108.8200469 425.429120
     51     49     52     1   108.8200469 425.429120
     50     49     51     1   109.5500472 327.858240
     50     49     52     1   108.8200469 425.429120
     48     47     49     1   110.0700471 387.940480
     48     47     76     1   108.8200469 425.429120
     47     49     50     1   110.0700471 387.940480
     47     49     51     1   110.0700471 387.940480
     46     44     47     1   110.0700471 387.940480
     45     44     46     1   109.5500472 327.858240
     45     44     47     1   110.0700471 387.940480
     44     47     48     1   110.0700471 387.940480
     43     44     45     1   108.8200469 425.429120
     43     44     46     1   108.8200469 425.429120
    117    116    118     1   108.3500467 329.950240
    115    113    116     1   110.0500475 388.024160
    114    113    116     1   110.0500475 388.024160
    114    113    115     1   108.3500467 329.950240
    113    116    118     1   110.0500475 388.024160
    113    116    117     1   110.0500475 388.024160
    112    110    113     1   110.0500475 388.024160
    111    110    113     1   110.0500475 388.024160
    111    110    112     1   108.3500467 329.950240
    110    113    115     1   110.0500475 388.024160
    110    113    114     1   110.0500475 388.024160
    109    107    110     1   110.0500475 388.024160
    108    107    110     1   110.0500475 388.024160
    108    107    109     1   108.3500467 329.950240
    107    110    112     1   110.0500475 388.024160
    107    110    111     1   110.0500475 388.024160
    106    104    107     1   110.0500475 388.024160
    105    104    107     1   110.0500475 388.024160
    105    104    106     1   108.3500467 329.950240
    104    107    108     1   110.0500475 388.024160
    104    107    109     1   110.0500475 388.024160
    103    101    104     1   110.0500475 388.024160
    102    101    104     1   110.0500475 388.024160
    102    101    103     1   108.3500467 329.950240
    101    104    105     1   110.0500475 388.024160
    101    104    106     1   110.0500475 388.024160
    100     98    101     1   110.0500475 388.024160
     99     98    101     1   110.0500475 388.024160
     99     98    100     1   108.3500467 329.950240
     98    101    102     1   110.0500475 388.024160
     98    101    103     1   110.0500475 388.024160
     97     95     98     1   110.0500475 388.024160
     96     95     98     1   110.0500475 388.024160
     96     95     97     1   108.3500467 329.950240
     95     98    100     1   110.0500475 388.024160
     95     98     99     1   110.0500475 388.024160
     94     92     95     1   110.0500475 388.024160
     93     92     95     1   110.0500475 388.024160
     93     92     94     1   108.3500467 329.950240
     92     95     96     1   110.0500475 388.024160
     92     95     97     1   110.0500475 388.024160
     91     89     92     1   110.0500475 388.024160
     90     89     92     1   110.0500475 388.024160
     90     89     91     1   108.3500467 329.950240
     89     92     94     1   110.0500475 388.024160
     89     92     93     1   110.0500475 388.024160
     88     86     89     1   110.0500475 388.024160
     87     86     89     1   110.0500475 388.024160
     87     86     88     1   108.3500467 329.950240
     86     89     90     1   110.0500475 388.024160
     86     89     91     1   110.0500475 388.024160
     85     83     86     1   110.0500475 388.024160
     84     83     86     1   110.0500475 388.024160
     84     83     85     1   108.3500467 329.950240
     83     86     88     1   110.0500475 388.024160
     83     86     87     1   110.0500475 388.024160
     82     80     83     1   110.0500475 388.024160
     81     80     83     1   110.0500475 388.024160
     81     80     82     1   108.3500467 329.950240
     80     83     84     1   110.0500475 388.024160
     80     83     85     1   110.0500475 388.024160
     79     80     83     1   110.0500475 388.024160
     79     80     81     1   108.3500467 329.950240
     79     80     82     1   108.3500467 329.950240


[ dihedrals ]
;    ai     aj     ak     al funct         c0         c1         c2         c3         c4         c5
     38     41     43     44     1  180.0000771  11.2968000  2
     35     38     41     42     1  180.0000771  0.0000000  2
     35     38     41     43     1  180.0000771  0.0000000  2
     32     35     38     41     1  0.0000000  0.6527040  3
     29     32     35     38     1  0.0000000  0.4184000  1
     29     32     35     38     1  0.0000000  0.4184000  2
     29     32     35     38     1  0.0000000  1.2552000  3
     29     32     35     38     1  0.0000000  0.4184000  4
     29     32     35     38     1  0.0000000  0.4184000  5
     26     29     32     35     1  0.0000000  0.4184000  1
     26     29     32     35     1  0.0000000  0.4184000  2
     26     29     32     35     1  0.0000000  1.2552000  3
     26     29     32     35     1  0.0000000  0.4184000  4
     26     29     32     35     1  0.0000000  0.4184000  5
     23     26     29     32     1  0.0000000  0.4184000  1
     23     26     29     32     1  0.0000000  0.4184000  2
     23     26     29     32     1  0.0000000  1.2552000  3
     23     26     29     32     1  0.0000000  0.4184000  4
     23     26     29     32     1  0.0000000  0.4184000  5
     20     23     26     29     1  0.0000000  0.4184000  1
     20     23     26     29     1  0.0000000  0.4184000  2
     20     23     26     29     1  0.0000000  1.2552000  3
     20     23     26     29     1  0.0000000  0.4184000  4
     20     23     26     29     1  0.0000000  0.4184000  5
     17     20     23     26     1  0.0000000  0.4184000  1
     17     20     23     26     1  0.0000000  0.4184000  2
     17     20     23     26     1  0.0000000  1.2552000  3
     17     20     23     26     1  0.0000000  0.4184000  4
     17     20     23     26     1  0.0000000  0.4184000  5
     14     17     20     23     1  0.0000000  0.4184000  1
     14     17     20     23     1  0.0000000  0.4184000  2
     14     17     20     23     1  0.0000000  1.2552000  3
     14     17     20     23     1  0.0000000  0.4184000  4
     14     17     20     23     1  0.0000000  0.4184000  5
     11     14     17     20     1  0.0000000  0.4184000  1
     11     14     17     20     1  0.0000000  0.4184000  2
     11     14     17     20     1  0.0000000  1.2552000  3
     11     14     17     20     1  0.0000000  0.4184000  4
     11     14     17     20     1  0.0000000  0.4184000  5
      8     11     14     17     1  0.0000000  0.4184000  1
      8     11     14     17     1  0.0000000  0.4184000  2
      8     11     14     17     1  0.0000000  1.2552000  3
      8     11     14     17     1  0.0000000  0.4184000  4
      8     11     14     17     1  0.0000000  0.4184000  5
      5      8     11     14     1  0.0000000  0.4184000  1
      5      8     11     14     1  0.0000000  0.4184000  2
      5      8     11     14     1  0.0000000  1.2552000  3
      5      8     11     14     1  0.0000000  0.4184000  4
      5      8     11     14     1  0.0000000  0.4184000  5
      2      5      8     11     1  0.0000000  0.4184000  1
      2      5      8     11     1  0.0000000  0.4184000  2
      2      5      8     11     1  0.0000000  1.2552000  3
      2      5      8     11     1  0.0000000  0.4184000  4
      2      5      8     11     1  0.0000000  0.4184000  5
     78     77    116    113     1  180.0000771  0.0000000  2
     77    116    113    110     1  0.0000000  0.6527040  3
     76     77    116    113     1  180.0000771  0.0000000  2
     55     54     53     74     1  0.0000000  0.0000000  1
     55     54     53     74     1  0.0000000  0.8368000  2
     55     54     53     74     1  0.0000000  0.0000000  3
     55     54     53     74     1  0.0000000  0.0000000  4
     55     54     53     74     1  0.0000000  0.0000000  5
     55     54     53     75     1  0.0000000  0.0000000  1
     55     54     53     75     1  0.0000000  0.8368000  2
     55     54     53     75     1  0.0000000  0.0000000  3
     55     54     53     75     1  0.0000000  0.0000000  4
     55     54     53     75     1  0.0000000  0.0000000  5
     55     58     61     62     1  0.0000000  0.6527040  3
     55     58     61     66     1  0.0000000  0.6527040  3
     55     58     61     70     1  0.0000000  0.6527040  3
     54     55     58     61     1  0.0000000  4.1840000  3
     53     54     55     58     1  180.0000771  -3.3472000  2
     53     54     55     58     1  0.0000000  0.0000000  3
     52     49     47     76     1  0.0000000  0.0000000  1
     52     49     47     76     1  0.0000000  0.0000000  2
     52     49     47     76     1  0.0000000  0.0000000  3
     52     49     47     76     1  0.0000000  0.0000000  4
     52     49     47     76     1  0.0000000  0.0000000  5
     52     53     54     55     1  0.0000000  9.6232000  2
     52     53     54     55     1  0.0000000  2.5104000  3
     49     47     76     77     1  0.0000000  -0.4184000  1
     49     47     76     77     1  240.0001029  -1.2552000  2
     49     47     76     77     1  300.0001286  -0.8368000  3
     49     52     53     54     1  0.0000000  9.6232000  2
     49     52     53     54     1  0.0000000  2.5104000  3
     49     52     53     74     1  0.0000000  0.0000000  1
     49     52     53     74     1  0.0000000  0.8368000  2
     49     52     53     74     1  0.0000000  0.0000000  3
     49     52     53     74     1  0.0000000  0.0000000  4
     49     52     53     74     1  0.0000000  0.0000000  5
     49     52     53     75     1  0.0000000  0.0000000  1
     49     52     53     75     1  0.0000000  0.8368000  2
     49     52     53     75     1  0.0000000  0.0000000  3
     49     52     53     75     1  0.0000000  0.0000000  4
     49     52     53     75     1  0.0000000  0.0000000  5
     47     49     52     53     1  180.0000771  -3.3472000  2
     47     49     52     53     1  0.0000000  0.0000000  3
     47     76     77     78     1  180.0000771  5.8576000  1
     47     76     77     78     1  180.0000771  11.2968000  2
     47     76     77    116     1  180.0000771  11.2968000  2
     44     47     49     52     1  180.0000771  3.3472000  1
     44     47     49     52     1  120.0000514  0.8368000  2
     44     47     49     52     1  60.0000257  1.6736000  3
     44     47     76     77     1  0.0000000  -0.4184000  1
     44     47     76     77     1  240.0001029  -1.2552000  2
     44     47     76     77     1  300.0001286  -0.8368000  3
     43     44     47     49     1  0.0000000  0.0000000  1
     43     44     47     49     1  0.0000000  0.0000000  2
     43     44     47     49     1  0.0000000  0.0000000  3
     43     44     47     49     1  0.0000000  0.0000000  4
     43     44     47     49     1  0.0000000  0.0000000  5
     43     44     47     76     1  180.0000771  -0.4184000  1
     43     44     47     76     1  0.0000000  1.2552000  2
     43     44     47     76     1  0.0000000  4.1840000  3
     42     41     43     44     1  180.0000771  5.8576000  1
     42     41     43     44     1  180.0000771  11.2968000  2
     41     43     44     47     1  0.0000000  -0.4184000  1
     41     43     44     47     1  240.0001029  -1.2552000  2
     41     43     44     47     1  300.0001286  -0.8368000  3
    107    110    113    116     1  0.0000000  0.4184000  1
    107    110    113    116     1  0.0000000  0.4184000  2
    107    110    113    116     1  0.0000000  1.2552000  3
    107    110    113    116     1  0.0000000  0.4184000  4
    107    110    113    116     1  0.0000000  0.4184000  5
    104    107    110    113     1  0.0000000  0.4184000  1
    104    107    110    113     1  0.0000000  0.4184000  2
    104    107    110    113     1  0.0000000  1.2552000  3
    104    107    110    113     1  0.0000000  0.4184000  4
    104    107    110    113     1  0.0000000  0.4184000  5
    101    104    107    110     1  0.0000000  0.4184000  1
    101    104    107    110     1  0.0000000  0.4184000  2
    101    104    107    110     1  0.0000000  1.2552000  3
    101    104    107    110     1  0.0000000  0.4184000  4
    101    104    107    110     1  0.0000000  0.4184000  5
     98    101    104    107     1  0.0000000  0.4184000  1
     98    101    104    107     1  0.0000000  0.4184000  2
     98    101    104    107     1  0.0000000  1.2552000  3
     98    101    104    107     1  0.0000000  0.4184000  4
     98    101    104    107     1  0.0000000  0.4184000  5
     95     98    101    104     1  0.0000000  0.4184000  1
     95     98    101    104     1  0.0000000  0.4184000  2
     95     98    101    104     1  0.0000000  1.2552000  3
     95     98    101    104     1  0.0000000  0.4184000  4
     95     98    101    104     1  0.0000000  0.4184000  5
     92     95     98    101     1  0.0000000  0.4184000  1
     92     95     98    101     1  0.0000000  0.4184000  2
     92     95     98    101     1  0.0000000  1.2552000  3
     92     95     98    101     1  0.0000000  0.4184000  4
     92     95     98    101     1  0.0000000  0.4184000  5
     89     92     95     98     1  0.0000000  0.4184000  1
     89     92     95     98     1  0.0000000  0.4184000  2
     89     92     95     98     1  0.0000000  1.2552000  3
     89     92     95     98     1  0.0000000  0.4184000  4
     89     92     95     98     1  0.0000000  0.4184000  5
     86     89     92     95     1  0.0000000  0.4184000  1
     86     89     92     95     1  0.0000000  0.4184000  2
     86     89     92     95     1  0.0000000  1.2552000  3
     86     89     92     95     1  0.0000000  0.4184000  4
     86     89     92     95     1  0.0000000  0.4184000  5
     83     86     89     92     1  0.0000000  0.4184000  1
     83     86     89     92     1  0.0000000  0.4184000  2
     83     86     89     92     1  0.0000000  1.2552000  3
     83     86     89     92     1  0.0000000  0.4184000  4
     83     86     89     92     1  0.0000000  0.4184000  5
     80     83     86     89     1  0.0000000  0.4184000  1
     80     83     86     89     1  0.0000000  0.4184000  2
     80     83     86     89     1  0.0000000  1.2552000  3
     80     83     86     89     1  0.0000000  0.4184000  4
     80     83     86     89     1  0.0000000  0.4184000  5
    116     78     77     76     4  180.0000771  43.9320000  2
     38     42     41     43     4  180.0000771  43.9320000  2
     40     38     41     42     1  0.0000000  3.3472000  1
     40     38     41     42     1  180.0000771  0.3347200  3
     40     38     41     43     1  180.0000771  0.0000000  2
     39     38     41     42     1  0.0000000  3.3472000  1
     39     38     41     42     1  180.0000771  0.3347200  3
     39     38     41     43     1  180.0000771  0.0000000  2
     37     35     38     40     1  0.0000000  0.6276000  3
     37     35     38     39     1  0.0000000  0.6276000  3
     37     35     38     41     1  0.0000000  0.6527040  3
     36     35     38     40     1  0.0000000  0.6276000  3
     36     35     38     39     1  0.0000000  0.6276000  3
     36     35     38     41     1  0.0000000  0.6527040  3
     34     32     35     38     1  0.0000000  0.6694400  3
     34     32     35     37     1  0.0000000  0.6276000  3
     34     32     35     36     1  0.0000000  0.6276000  3
     33     32     35     38     1  0.0000000  0.6694400  3
     33     32     35     37     1  0.0000000  0.6276000  3
     33     32     35     36     1  0.0000000  0.6276000  3
     32     35     38     40     1  0.0000000  0.6694400  3
     32     35     38     39     1  0.0000000  0.6694400  3
     31     29     32     35     1  0.0000000  0.6694400  3
     31     29     32     34     1  0.0000000  0.6276000  3
     31     29     32     33     1  0.0000000  0.6276000  3
     30     29     32     35     1  0.0000000  0.6694400  3
     30     29     32     34     1  0.0000000  0.6276000  3
     30     29     32     33     1  0.0000000  0.6276000  3
     29     32     35     37     1  0.0000000  0.6694400  3
     29     32     35     36     1  0.0000000  0.6694400  3
     28     26     29     32     1  0.0000000  0.6694400  3
     28     26     29     30     1  0.0000000  0.6276000  3
     28     26     29     31     1  0.0000000  0.6276000  3
     27     26     29     32     1  0.0000000  0.6694400  3
     27     26     29     30     1  0.0000000  0.6276000  3
     27     26     29     31     1  0.0000000  0.6276000  3
     26     29     32     34     1  0.0000000  0.6694400  3
     26     29     32     33     1  0.0000000  0.6694400  3
     25     23     26     29     1  0.0000000  0.6694400  3
     25     23     26     27     1  0.0000000  0.6276000  3
     25     23     26     28     1  0.0000000  0.6276000  3
     24     23     26     29     1  0.0000000  0.6694400  3
     24     23     26     27     1  0.0000000  0.6276000  3
     24     23     26     28     1  0.0000000  0.6276000  3
     23     26     29     30     1  0.0000000  0.6694400  3
     23     26     29     31     1  0.0000000  0.6694400  3
     22     20     23     26     1  0.0000000  0.6694400  3
     22     20     23     24     1  0.0000000  0.6276000  3
     22     20     23     25     1  0.0000000  0.6276000  3
     21     20     23     26     1  0.0000000  0.6694400  3
     21     20     23     24     1  0.0000000  0.6276000  3
     21     20     23     25     1  0.0000000  0.6276000  3
     20     23     26     27     1  0.0000000  0.6694400  3
     20     23     26     28     1  0.0000000  0.6694400  3
     19     17     20     23     1  0.0000000  0.6694400  3
     19     17     20     22     1  0.0000000  0.6276000  3
     19     17     20     21     1  0.0000000  0.6276000  3
     18     17     20     23     1  0.0000000  0.6694400  3
     18     17     20     22     1  0.0000000  0.6276000  3
     18     17     20     21     1  0.0000000  0.6276000  3
     17     20     23     24     1  0.0000000  0.6694400  3
     17     20     23     25     1  0.0000000  0.6694400  3
     16     14     17     20     1  0.0000000  0.6694400  3
     16     14     17     18     1  0.0000000  0.6276000  3
     16     14     17     19     1  0.0000000  0.6276000  3
     15     14     17     20     1  0.0000000  0.6694400  3
     15     14     17     18     1  0.0000000  0.6276000  3
     15     14     17     19     1  0.0000000  0.6276000  3
     14     17     20     22     1  0.0000000  0.6694400  3
     14     17     20     21     1  0.0000000  0.6694400  3
     13     11     14     17     1  0.0000000  0.6694400  3
     13     11     14     16     1  0.0000000  0.6276000  3
     13     11     14     15     1  0.0000000  0.6276000  3
     12     11     14     17     1  0.0000000  0.6694400  3
     12     11     14     16     1  0.0000000  0.6276000  3
     12     11     14     15     1  0.0000000  0.6276000  3
     11     14     17     18     1  0.0000000  0.6694400  3
     11     14     17     19     1  0.0000000  0.6694400  3
     10      8     11     14     1  0.0000000  0.6694400  3
     10      8     11     12     1  0.0000000  0.6276000  3
     10      8     11     13     1  0.0000000  0.6276000  3
      9      8     11     14     1  0.0000000  0.6694400  3
      9      8     11     12     1  0.0000000  0.6276000  3
      9      8     11     13     1  0.0000000  0.6276000  3
      8     11     14     16     1  0.0000000  0.6694400  3
      8     11     14     15     1  0.0000000  0.6694400  3
      7      5      8     11     1  0.0000000  0.6694400  3
      7      5      8     10     1  0.0000000  0.6276000  3
      7      5      8      9     1  0.0000000  0.6276000  3
      6      5      8     11     1  0.0000000  0.6694400  3
      6      5      8     10     1  0.0000000  0.6276000  3
      6      5      8      9     1  0.0000000  0.6276000  3
      5      8     11     12     1  0.0000000  0.6694400  3
      5      8     11     13     1  0.0000000  0.6694400  3
      4      2      5      8     1  0.0000000  0.6694400  3
      4      2      5      6     1  0.0000000  0.6276000  3
      4      2      5      7     1  0.0000000  0.6276000  3
      3      2      5      8     1  0.0000000  0.6694400  3
      3      2      5      6     1  0.0000000  0.6276000  3
      3      2      5      7     1  0.0000000  0.6276000  3
      2      5      8     10     1  0.0000000  0.6694400  3
      2      5      8      9     1  0.0000000  0.6694400  3
      1      2      5      8     1  0.0000000  0.6694400  3
      1      2      5      6     1  0.0000000  0.6276000  3
      1      2      5      7     1  0.0000000  0.6276000  3
     78     77    116    118     1  0.0000000  3.3472000  1
     78     77    116    118     1  180.0000771  0.3347200  3
     78     77    116    117     1  0.0000000  3.3472000  1
     78     77    116    117     1  180.0000771  0.3347200  3
     77    116    113    115     1  0.0000000  0.6527040  3
     77    116    113    114     1  0.0000000  0.6527040  3
     76     77    116    118     1  180.0000771  0.0000000  2
     76     77    116    117     1  180.0000771  0.0000000  2
     69     66     61     70     1  0.0000000  0.6527040  3
     68     66     61     70     1  0.0000000  0.6527040  3
     67     66     61     70     1  0.0000000  0.6527040  3
     66     61     70     71     1  0.0000000  0.6527040  3
     66     61     70     72     1  0.0000000  0.6527040  3
     66     61     70     73     1  0.0000000  0.6527040  3
     65     62     61     66     1  0.0000000  0.6527040  3
     65     62     61     70     1  0.0000000  0.6527040  3
     64     62     61     66     1  0.0000000  0.6527040  3
     64     62     61     70     1  0.0000000  0.6527040  3
     63     62     61     66     1  0.0000000  0.6527040  3
     63     62     61     70     1  0.0000000  0.6527040  3
     62     61     66     67     1  0.0000000  0.6527040  3
     62     61     66     68     1  0.0000000  0.6527040  3
     62     61     66     69     1  0.0000000  0.6527040  3
     62     61     70     71     1  0.0000000  0.6527040  3
     62     61     70     72     1  0.0000000  0.6527040  3
     62     61     70     73     1  0.0000000  0.6527040  3
     60     58     61     62     1  0.0000000  0.6527040  3
     60     58     61     66     1  0.0000000  0.6527040  3
     60     58     61     70     1  0.0000000  0.6527040  3
     59     58     61     62     1  0.0000000  0.6527040  3
     59     58     61     66     1  0.0000000  0.6527040  3
     59     58     61     70     1  0.0000000  0.6527040  3
     58     61     62     63     1  0.0000000  0.6527040  3
     58     61     62     64     1  0.0000000  0.6527040  3
     58     61     62     65     1  0.0000000  0.6527040  3
     58     61     66     67     1  0.0000000  0.6527040  3
     58     61     66     68     1  0.0000000  0.6527040  3
     58     61     66     69     1  0.0000000  0.6527040  3
     58     61     70     71     1  0.0000000  0.6527040  3
     58     61     70     72     1  0.0000000  0.6527040  3
     58     61     70     73     1  0.0000000  0.6527040  3
     57     55     58     59     1  0.0000000  0.6527040  3
     57     55     58     60     1  0.0000000  0.6527040  3
     57     55     58     61     1  0.0000000  0.6527040  3
     56     55     58     59     1  0.0000000  0.6527040  3
     56     55     58     60     1  0.0000000  0.6527040  3
     56     55     58     61     1  0.0000000  0.6527040  3
     54     55     58     59     1  0.0000000  0.6527040  3
     54     55     58     60     1  0.0000000  0.6527040  3
     53     54     55     56     1  0.0000000  0.0000000  1
     53     54     55     56     1  0.0000000  0.0000000  2
     53     54     55     56     1  0.0000000  1.6024720  3
     53     54     55     56     1  0.0000000  0.0000000  4
     53     54     55     56     1  0.0000000  0.0000000  5
     53     54     55     57     1  0.0000000  0.0000000  1
     53     54     55     57     1  0.0000000  0.0000000  2
     53     54     55     57     1  0.0000000  1.6024720  3
     53     54     55     57     1  0.0000000  0.0000000  4
     53     54     55     57     1  0.0000000  0.0000000  5
     51     49     47     76     1  0.0000000  1.0460000  1
     51     49     47     76     1  0.0000000  0.0000000  3
     51     49     52     53     1  0.0000000  0.0000000  1
     51     49     52     53     1  0.0000000  0.0000000  2
     51     49     52     53     1  0.0000000  1.6024720  3
     51     49     52     53     1  0.0000000  0.0000000  4
     51     49     52     53     1  0.0000000  0.0000000  5
     50     49     47     76     1  0.0000000  1.0460000  1
     50     49     47     76     1  0.0000000  0.0000000  3
     50     49     52     53     1  0.0000000  0.0000000  1
     50     49     52     53     1  0.0000000  0.0000000  2
     50     49     52     53     1  0.0000000  1.6024720  3
     50     49     52     53     1  0.0000000  0.0000000  4
     50     49     52     53     1  0.0000000  0.0000000  5
     48     47     49     50     1  0.0000000  0.6527040  3
     48     47     49     51     1  0.0000000  0.6527040  3
     48     47     49     52     1  0.0000000  1.0460000  1
     48     47     49     52     1  0.0000000  0.0000000  3
     48     47     76     77     1  0.0000000  1.6024720  3
     46     44     47     48     1  0.0000000  0.6527040  3
     46     44     47     49     1  0.0000000  0.6527040  3
     46     44     47     76     1  0.0000000  1.0460000  1
     46     44     47     76     1  0.0000000  0.0000000  3
     45     44     47     48     1  0.0000000  0.6527040  3
     45     44     47     49     1  0.0000000  0.6527040  3
     45     44     47     76     1  0.0000000  1.0460000  1
     45     44     47     76     1  0.0000000  0.0000000  3
     44     47     49     50     1  0.0000000  0.6527040  3
     44     47     49     51     1  0.0000000  0.6527040  3
     43     44     47     48     1  0.0000000  1.0460000  1
     43     44     47     48     1  0.0000000  0.0000000  3
     41     43     44     45     1  0.0000000  1.6024720  3
     41     43     44     46     1  0.0000000  1.6024720  3
    115    113    116    118     1  0.0000000  0.6276000  3
    115    113    116    117     1  0.0000000  0.6276000  3
    114    113    116    118     1  0.0000000  0.6276000  3
    114    113    116    117     1  0.0000000  0.6276000  3
    112    110    113    116     1  0.0000000  0.6694400  3
    112    110    113    115     1  0.0000000  0.6276000  3
    112    110    113    114     1  0.0000000  0.6276000  3
    111    110    113    116     1  0.0000000  0.6694400  3
    111    110    113    115     1  0.0000000  0.6276000  3
    111    110    113    114     1  0.0000000  0.6276000  3
    110    113    116    118     1  0.0000000  0.6694400  3
    110    113    116    117     1  0.0000000  0.6694400  3
    109    107    110    113     1  0.0000000  0.6694400  3
    109    107    110    112     1  0.0000000  0.6276000  3
    109    107    110    111     1  0.0000000  0.6276000  3
    108    107    110    113     1  0.0000000  0.6694400  3
    108    107    110    112     1  0.0000000  0.6276000  3
    108    107    110    111     1  0.0000000  0.6276000  3
    107    110    113    115     1  0.0000000  0.6694400  3
    107    110    113    114     1  0.0000000  0.6694400  3
    106    104    107    110     1  0.0000000  0.6694400  3
    106    104    107    108     1  0.0000000  0.6276000  3
    106    104    107    109     1  0.0000000  0.6276000  3
    105    104    107    110     1  0.0000000  0.6694400  3
    105    104    107    108     1  0.0000000  0.6276000  3
    105    104    107    109     1  0.0000000  0.6276000  3
    104    107    110    112     1  0.0000000  0.6694400  3
    104    107    110    111     1  0.0000000  0.6694400  3
    103    101    104    107     1  0.0000000  0.6694400  3
    103    101    104    105     1  0.0000000  0.6276000  3
    103    101    104    106     1  0.0000000  0.6276000  3
    102    101    104    107     1  0.0000000  0.6694400  3
    102    101    104    105     1  0.0000000  0.6276000  3
    102    101    104    106     1  0.0000000  0.6276000  3
    101    104    107    108     1  0.0000000  0.6694400  3
    101    104    107    109     1  0.0000000  0.6694400  3
    100     98    101    104     1  0.0000000  0.6694400  3
    100     98    101    102     1  0.0000000  0.6276000  3
    100     98    101    103     1  0.0000000  0.6276000  3
     99     98    101    104     1  0.0000000  0.6694400  3
     99     98    101    102     1  0.0000000  0.6276000  3
     99     98    101    103     1  0.0000000  0.6276000  3
     98    101    104    105     1  0.0000000  0.6694400  3
     98    101    104    106     1  0.0000000  0.6694400  3
     97     95     98    101     1  0.0000000  0.6694400  3
     97     95     98    100     1  0.0000000  0.6276000  3
     97     95     98     99     1  0.0000000  0.6276000  3
     96     95     98    101     1  0.0000000  0.6694400  3
     96     95     98    100     1  0.0000000  0.6276000  3
     96     95     98     99     1  0.0000000  0.6276000  3
     95     98    101    102     1  0.0000000  0.6694400  3
     95     98    101    103     1  0.0000000  0.6694400  3
     94     92     95     98     1  0.0000000  0.6694400  3
     94     92     95     96     1  0.0000000  0.6276000  3
     94     92     95     97     1  0.0000000  0.6276000  3
     93     92     95     98     1  0.0000000  0.6694400  3
     93     92     95     96     1  0.0000000  0.6276000  3
     93     92     95     97     1  0.0000000  0.6276000  3
     92     95     98    100     1  0.0000000  0.6694400  3
     92     95     98     99     1  0.0000000  0.6694400  3
     91     89     92     95     1  0.0000000  0.6694400  3
     91     89     92     94     1  0.0000000  0.6276000  3
     91     89     92     93     1  0.0000000  0.6276000  3
     90     89     92     95     1  0.0000000  0.6694400  3
     90     89     92     94     1  0.0000000  0.6276000  3
     90     89     92     93     1  0.0000000  0.6276000  3
     89     92     95     96     1  0.0000000  0.6694400  3
     89     92     95     97     1  0.0000000  0.6694400  3
     88     86     89     92     1  0.0000000  0.6694400  3
     88     86     89     90     1  0.0000000  0.6276000  3
     88     86     89     91     1  0.0000000  0.6276000  3
     87     86     89     92     1  0.0000000  0.6694400  3
     87     86     89     90     1  0.0000000  0.6276000  3
     87     86     89     91     1  0.0000000  0.6276000  3
     86     89     92     94     1  0.0000000  0.6694400  3
     86     89     92     93     1  0.0000000  0.6694400  3
     85     83     86     89     1  0.0000000  0.6694400  3
     85     83     86     88     1  0.0000000  0.6276000  3
     85     83     86     87     1  0.0000000  0.6276000  3
     84     83     86     89     1  0.0000000  0.6694400  3
     84     83     86     88     1  0.0000000  0.6276000  3
     84     83     86     87     1  0.0000000  0.6276000  3
     83     86     89     90     1  0.0000000  0.6694400  3
     83     86     89     91     1  0.0000000  0.6694400  3
     82     80     83     86     1  0.0000000  0.6694400  3
     82     80     83     84     1  0.0000000  0.6276000  3
     82     80     83     85     1  0.0000000  0.6276000  3
     81     80     83     86     1  0.0000000  0.6694400  3
     81     80     83     84     1  0.0000000  0.6276000  3
     81     80     83     85     1  0.0000000  0.6276000  3
     80     83     86     88     1  0.0000000  0.6694400  3
     80     83     86     87     1  0.0000000  0.6694400  3
     79     80     83     86     1  0.0000000  0.6694400  3
     79     80     83     84     1  0.0000000  0.6276000  3
     79     80     83     85     1  0.0000000  0.6276000  3
