; Exact Amber Lipid21 v1.0 topology converted by ParmEd
; Explicit [pairs] preserve Lipid21-specific 1-4 scaling.
; Conversion contract: amber-explicit-pairs-v2 (independent of parent defaults).

[ moleculetype ]
; Name nrexcl
DMPE 3

[ atoms ]
; nr type resnr residue atom cgnr charge mass
1 L21_hL 1 DMPE H14Z 1 0.02551100 1.008000
2 L21_cD 1 DMPE C14X 2 -0.11171200 12.010000
3 L21_hL 1 DMPE H14X 3 0.02551100 1.008000
4 L21_hL 1 DMPE H14Y 4 0.02551100 1.008000
5 L21_cD 1 DMPE C13X 5 0.01746300 12.010000
6 L21_hL 1 DMPE H13X 6 0.00753100 1.008000
7 L21_hL 1 DMPE H13Y 7 0.00753100 1.008000
8 L21_cD 1 DMPE C12X 8 -0.02809400 12.010000
9 L21_hL 1 DMPE H12X 9 0.01720800 1.008000
10 L21_hL 1 DMPE H12Y 10 0.01720800 1.008000
11 L21_cD 1 DMPE C11X 11 -0.03178700 12.010000
12 L21_hL 1 DMPE H11X 12 0.01267700 1.008000
13 L21_hL 1 DMPE H11Y 13 0.01267700 1.008000
14 L21_cD 1 DMPE C10X 14 -0.02102500 12.010000
15 L21_hL 1 DMPE H10X 15 0.01003700 1.008000
16 L21_hL 1 DMPE H10Y 16 0.01003700 1.008000
17 L21_cD 1 DMPE C9X 17 -0.01465300 12.010000
18 L21_hL 1 DMPE H9X 18 0.01017200 1.008000
19 L21_hL 1 DMPE H9Y 19 0.01017200 1.008000
20 L21_cD 1 DMPE C8X 20 -0.02645100 12.010000
21 L21_hL 1 DMPE H8X 21 0.01124100 1.008000
22 L21_hL 1 DMPE H8Y 22 0.01124100 1.008000
23 L21_cD 1 DMPE C7X 23 -0.00438600 12.010000
24 L21_hL 1 DMPE H7X 24 0.00683300 1.008000
25 L21_hL 1 DMPE H7Y 25 0.00683300 1.008000
26 L21_cD 1 DMPE C6X 26 -0.02781200 12.010000
27 L21_hL 1 DMPE H6X 27 0.01151100 1.008000
28 L21_hL 1 DMPE H6Y 28 0.01151100 1.008000
29 L21_cD 1 DMPE C5X 29 -0.01652100 12.010000
30 L21_hL 1 DMPE H5X 30 0.01057300 1.008000
31 L21_hL 1 DMPE H5Y 31 0.01057300 1.008000
32 L21_cD 1 DMPE C4X 32 -0.02695400 12.010000
33 L21_hL 1 DMPE H4X 33 0.02043100 1.008000
34 L21_hL 1 DMPE H4Y 34 0.02043100 1.008000
35 L21_cD 1 DMPE C3X 35 -0.00243500 12.010000
36 L21_hL 1 DMPE H3X 36 0.01885900 1.008000
37 L21_hL 1 DMPE H3Y 37 0.01885900 1.008000
38 L21_cD 1 DMPE C2X 38 -0.16420000 12.010000
39 L21_hL 1 DMPE H2X 39 0.05394400 1.008000
40 L21_hL 1 DMPE H2Y 40 0.05394400 1.008000
41 L21_cC 1 DMPE C11 41 0.88835900 12.010000
42 L21_oC 1 DMPE O12 42 -0.65080200 16.000000
43 L21_oS 1 DMPE O11 43 -0.59382600 16.000000
44 L21_cA 1 DMPE C1 44 0.27377600 12.010000
45 L21_hE 1 DMPE HR 45 0.04457400 1.008000
46 L21_hE 1 DMPE HS 46 0.04457400 1.008000
47 L21_cA 1 DMPE C2 47 0.33900400 12.010000
48 L21_hE 1 DMPE HX 48 0.03284300 1.008000
49 L21_cA 1 DMPE C3 49 0.04096700 12.010000
50 L21_hE 1 DMPE HA 50 0.09099400 1.008000
51 L21_hE 1 DMPE HB 51 0.09099400 1.008000
52 L21_oT 1 DMPE O31 52 -0.54662300 16.000000
53 L21_pA 1 DMPE P31 53 1.37365600 30.970000
54 L21_oT 1 DMPE O32 54 -0.51454200 16.000000
55 L21_cA 1 DMPE C31 55 0.07515900 12.010000
56 L21_hE 1 DMPE H1A 56 0.09151600 1.008000
57 L21_hE 1 DMPE H1B 57 0.09151600 1.008000
58 L21_cA 1 DMPE C32 58 0.07731900 12.010000
59 L21_hX 1 DMPE H2A 59 0.09163000 1.008000
60 L21_hX 1 DMPE H2B 60 0.09163000 1.008000
61 L21_nA 1 DMPE N31 61 -0.36813200 14.010000
62 L21_hN 1 DMPE HN1A 62 0.34854900 1.008000
63 L21_hN 1 DMPE HN1B 63 0.34854900 1.008000
64 L21_hN 1 DMPE HN1C 64 0.34854900 1.008000
65 L21_oP 1 DMPE O33 65 -0.87744700 16.000000
66 L21_oP 1 DMPE O34 66 -0.87744700 16.000000
67 L21_oS 1 DMPE O21 67 -0.57548000 16.000000
68 L21_cC 1 DMPE C21 68 0.86934000 12.010000
69 L21_oC 1 DMPE O22 69 -0.64919900 16.000000
70 L21_hL 1 DMPE H14W 70 0.02551100 1.008000
71 L21_cD 1 DMPE C14Y 71 -0.11171200 12.010000
72 L21_hL 1 DMPE H14U 72 0.02551100 1.008000
73 L21_hL 1 DMPE H14V 73 0.02551100 1.008000
74 L21_cD 1 DMPE C13Y 74 0.01746300 12.010000
75 L21_hL 1 DMPE H13U 75 0.00753100 1.008000
76 L21_hL 1 DMPE H13V 76 0.00753100 1.008000
77 L21_cD 1 DMPE C12Y 77 -0.02809400 12.010000
78 L21_hL 1 DMPE H12U 78 0.01720800 1.008000
79 L21_hL 1 DMPE H12V 79 0.01720800 1.008000
80 L21_cD 1 DMPE C11Y 80 -0.03178700 12.010000
81 L21_hL 1 DMPE H11U 81 0.01267700 1.008000
82 L21_hL 1 DMPE H11V 82 0.01267700 1.008000
83 L21_cD 1 DMPE C10Y 83 -0.02102500 12.010000
84 L21_hL 1 DMPE H10U 84 0.01003700 1.008000
85 L21_hL 1 DMPE H10V 85 0.01003700 1.008000
86 L21_cD 1 DMPE C9Y 86 -0.01465300 12.010000
87 L21_hL 1 DMPE H9U 87 0.01017200 1.008000
88 L21_hL 1 DMPE H9V 88 0.01017200 1.008000
89 L21_cD 1 DMPE C8Y 89 -0.02645100 12.010000
90 L21_hL 1 DMPE H8U 90 0.01124100 1.008000
91 L21_hL 1 DMPE H8V 91 0.01124100 1.008000
92 L21_cD 1 DMPE C7Y 92 -0.00438600 12.010000
93 L21_hL 1 DMPE H7U 93 0.00683300 1.008000
94 L21_hL 1 DMPE H7V 94 0.00683300 1.008000
95 L21_cD 1 DMPE C6Y 95 -0.02781200 12.010000
96 L21_hL 1 DMPE H6U 96 0.01151100 1.008000
97 L21_hL 1 DMPE H6V 97 0.01151100 1.008000
98 L21_cD 1 DMPE C5Y 98 -0.01652100 12.010000
99 L21_hL 1 DMPE H5U 99 0.01057300 1.008000
100 L21_hL 1 DMPE H5V 100 0.01057300 1.008000
101 L21_cD 1 DMPE C4Y 101 -0.02695400 12.010000
102 L21_hL 1 DMPE H4U 102 0.02043100 1.008000
103 L21_hL 1 DMPE H4V 103 0.02043100 1.008000
104 L21_cD 1 DMPE C3Y 104 -0.00243500 12.010000
105 L21_hL 1 DMPE H3U 105 0.01885900 1.008000
106 L21_hL 1 DMPE H3V 106 0.01885900 1.008000
107 L21_cD 1 DMPE C2Y 107 -0.16420000 12.010000
108 L21_hL 1 DMPE H2U 108 0.05394400 1.008000
109 L21_hL 1 DMPE H2V 109 0.05394400 1.008000

[ bonds ]
;    ai     aj funct         c0         c1         c2         c3
     38     41     1   0.15080 274721.440000
     35     38     1   0.15350 253634.080000
     32     35     1   0.15350 253634.080000
     29     32     1   0.15350 253634.080000
     26     29     1   0.15350 253634.080000
     23     26     1   0.15350 253634.080000
     20     23     1   0.15350 253634.080000
     17     20     1   0.15350 253634.080000
     14     17     1   0.15350 253634.080000
     11     14     1   0.15350 253634.080000
      8     11     1   0.15350 253634.080000
      5      8     1   0.15350 253634.080000
      2      5     1   0.15350 253634.080000
     68     69     1   0.12140 542246.400000
     68    107     1   0.15080 274721.440000
     67     68     1   0.13430 344175.840000
     58     61     1   0.14990 245684.480000
     55     58     1   0.15350 253634.080000
     54     55     1   0.14390 252295.200000
     53     54     1   0.16100 192464.000000
     53     65     1   0.14800 439320.000000
     53     66     1   0.14800 439320.000000
     52     53     1   0.16100 192464.000000
     49     52     1   0.14390 252295.200000
     47     49     1   0.15350 253634.080000
     47     67     1   0.14390 252295.200000
     44     47     1   0.15350 253634.080000
     43     44     1   0.14390 252295.200000
     41     42     1   0.12140 542246.400000
     41     43     1   0.13430 344175.840000
    104    107     1   0.15350 253634.080000
    101    104     1   0.15350 253634.080000
     98    101     1   0.15350 253634.080000
     95     98     1   0.15350 253634.080000
     92     95     1   0.15350 253634.080000
     89     92     1   0.15350 253634.080000
     86     89     1   0.15350 253634.080000
     83     86     1   0.15350 253634.080000
     80     83     1   0.15350 253634.080000
     77     80     1   0.15350 253634.080000
     74     77     1   0.15350 253634.080000
     71     74     1   0.15350 253634.080000
     38     40     1   0.10920 282252.640000
     38     39     1   0.10920 282252.640000
     35     37     1   0.10920 282252.640000
     35     36     1   0.10920 282252.640000
     32     34     1   0.10920 282252.640000
     32     33     1   0.10920 282252.640000
     29     30     1   0.10920 282252.640000
     29     31     1   0.10920 282252.640000
     26     27     1   0.10920 282252.640000
     26     28     1   0.10920 282252.640000
     23     24     1   0.10920 282252.640000
     23     25     1   0.10920 282252.640000
     20     22     1   0.10920 282252.640000
     20     21     1   0.10920 282252.640000
     17     18     1   0.10920 282252.640000
     17     19     1   0.10920 282252.640000
     14     16     1   0.10920 282252.640000
     14     15     1   0.10920 282252.640000
     11     12     1   0.10920 282252.640000
     11     13     1   0.10920 282252.640000
      8     10     1   0.10920 282252.640000
      8      9     1   0.10920 282252.640000
      5      6     1   0.10920 282252.640000
      5      7     1   0.10920 282252.640000
      2      3     1   0.10920 282252.640000
      2      4     1   0.10920 282252.640000
      1      2     1   0.10920 282252.640000
     61     62     1   0.10330 308779.200000
     61     63     1   0.10330 308779.200000
     61     64     1   0.10330 308779.200000
     58     59     1   0.10910 283424.160000
     58     60     1   0.10910 283424.160000
     55     56     1   0.10930 281081.120000
     55     57     1   0.10930 281081.120000
     49     50     1   0.10930 281081.120000
     49     51     1   0.10930 281081.120000
     47     48     1   0.10930 281081.120000
     44     45     1   0.10930 281081.120000
     44     46     1   0.10930 281081.120000
    107    109     1   0.10920 282252.640000
    107    108     1   0.10920 282252.640000
    104    106     1   0.10920 282252.640000
    104    105     1   0.10920 282252.640000
    101    103     1   0.10920 282252.640000
    101    102     1   0.10920 282252.640000
     98     99     1   0.10920 282252.640000
     98    100     1   0.10920 282252.640000
     95     96     1   0.10920 282252.640000
     95     97     1   0.10920 282252.640000
     92     93     1   0.10920 282252.640000
     92     94     1   0.10920 282252.640000
     89     91     1   0.10920 282252.640000
     89     90     1   0.10920 282252.640000
     86     87     1   0.10920 282252.640000
     86     88     1   0.10920 282252.640000
     83     85     1   0.10920 282252.640000
     83     84     1   0.10920 282252.640000
     80     81     1   0.10920 282252.640000
     80     82     1   0.10920 282252.640000
     77     79     1   0.10920 282252.640000
     77     78     1   0.10920 282252.640000
     74     75     1   0.10920 282252.640000
     74     76     1   0.10920 282252.640000
     71     72     1   0.10920 282252.640000
     71     73     1   0.10920 282252.640000
     70     71     1   0.10920 282252.640000


[ pairs ]
; ai aj funct fudgeQQ qi qj sigma epsilon; source-specific LJ and charge scaling
1 6 2 0.83333333333333 0.025510999983537 0.0075309999835367 0.26014242576773 0.020919999936173
1 7 2 0.83333333333333 0.025510999983537 0.0075309999835367 0.26014242576773 0.020919999936173
1 8 2 0.83333333333333 0.025510999983537 -0.028093999989024 0.30005468824211 0.069194303392389
2 9 2 0.83333333333333 -0.11171200013171 0.017207999978049 0.30005468824211 0.069194303392389
2 10 2 0.83333333333333 -0.11171200013171 0.017207999978049 0.30005468824211 0.069194303392389
2 11 2 0.83333333333333 -0.11171200013171 -0.031786999994512 0.33996695084507 0.076288266607901
3 6 2 0.83333333333333 0.025510999983537 0.0075309999835367 0.26014242576773 0.020919999936173
3 7 2 0.83333333333333 0.025510999983537 0.0075309999835367 0.26014242576773 0.020919999936173
3 8 2 0.83333333333333 0.025510999983537 -0.028093999989024 0.30005468824211 0.069194303392389
4 6 2 0.83333333333333 0.025510999983537 0.0075309999835367 0.26014242576773 0.020919999936173
4 7 2 0.83333333333333 0.025510999983537 0.0075309999835367 0.26014242576773 0.020919999936173
4 8 2 0.83333333333333 0.025510999983537 -0.028093999989024 0.30005468824211 0.069194303392389
5 12 2 0.83333333333333 0.017463000005488 0.012676999994512 0.30005468824211 0.069194303392389
5 13 2 0.83333333333333 0.017463000005488 0.012676999994512 0.30005468824211 0.069194303392389
5 14 2 0.83333333333333 0.017463000005488 -0.021024999972561 0.33996695084507 0.076288266607901
6 9 2 0.83333333333333 0.0075309999835367 0.017207999978049 0.26014242576773 0.020919999936173
6 10 2 0.83333333333333 0.0075309999835367 0.017207999978049 0.26014242576773 0.020919999936173
6 11 2 0.83333333333333 0.0075309999835367 -0.031786999994512 0.30005468824211 0.069194303392389
7 9 2 0.83333333333333 0.0075309999835367 0.017207999978049 0.26014242576773 0.020919999936173
7 10 2 0.83333333333333 0.0075309999835367 0.017207999978049 0.26014242576773 0.020919999936173
7 11 2 0.83333333333333 0.0075309999835367 -0.031786999994512 0.30005468824211 0.069194303392389
8 15 2 0.83333333333333 -0.028093999989024 0.010036999994512 0.30005468824211 0.069194303392389
8 16 2 0.83333333333333 -0.028093999989024 0.010036999994512 0.30005468824211 0.069194303392389
8 17 2 0.83333333333333 -0.028093999989024 -0.014653000005488 0.33996695084507 0.076288266607901
9 12 2 0.83333333333333 0.017207999978049 0.012676999994512 0.26014242576773 0.020919999936173
9 13 2 0.83333333333333 0.017207999978049 0.012676999994512 0.26014242576773 0.020919999936173
9 14 2 0.83333333333333 0.017207999978049 -0.021024999972561 0.30005468824211 0.069194303392389
10 12 2 0.83333333333333 0.017207999978049 0.012676999994512 0.26014242576773 0.020919999936173
10 13 2 0.83333333333333 0.017207999978049 0.012676999994512 0.26014242576773 0.020919999936173
10 14 2 0.83333333333333 0.017207999978049 -0.021024999972561 0.30005468824211 0.069194303392389
11 18 2 0.83333333333333 -0.031786999994512 0.010172000021951 0.30005468824211 0.069194303392389
11 19 2 0.83333333333333 -0.031786999994512 0.010172000021951 0.30005468824211 0.069194303392389
11 20 2 0.83333333333333 -0.031786999994512 -0.026450999983537 0.33996695084507 0.076288266607901
12 15 2 0.83333333333333 0.012676999994512 0.010036999994512 0.26014242576773 0.020919999936173
12 16 2 0.83333333333333 0.012676999994512 0.010036999994512 0.26014242576773 0.020919999936173
12 17 2 0.83333333333333 0.012676999994512 -0.014653000005488 0.30005468824211 0.069194303392389
13 15 2 0.83333333333333 0.012676999994512 0.010036999994512 0.26014242576773 0.020919999936173
13 16 2 0.83333333333333 0.012676999994512 0.010036999994512 0.26014242576773 0.020919999936173
13 17 2 0.83333333333333 0.012676999994512 -0.014653000005488 0.30005468824211 0.069194303392389
14 21 2 0.83333333333333 -0.021024999972561 0.011240999983537 0.30005468824211 0.069194303392389
14 22 2 0.83333333333333 -0.021024999972561 0.011240999983537 0.30005468824211 0.069194303392389
14 23 2 0.83333333333333 -0.021024999972561 -0.004386 0.33996695084507 0.076288266607901
15 18 2 0.83333333333333 0.010036999994512 0.010172000021951 0.26014242576773 0.020919999936173
15 19 2 0.83333333333333 0.010036999994512 0.010172000021951 0.26014242576773 0.020919999936173
15 20 2 0.83333333333333 0.010036999994512 -0.026450999983537 0.30005468824211 0.069194303392389
16 18 2 0.83333333333333 0.010036999994512 0.010172000021951 0.26014242576773 0.020919999936173
16 19 2 0.83333333333333 0.010036999994512 0.010172000021951 0.26014242576773 0.020919999936173
16 20 2 0.83333333333333 0.010036999994512 -0.026450999983537 0.30005468824211 0.069194303392389
17 24 2 0.83333333333333 -0.014653000005488 0.0068330000054878 0.30005468824211 0.069194303392389
17 25 2 0.83333333333333 -0.014653000005488 0.0068330000054878 0.30005468824211 0.069194303392389
17 26 2 0.83333333333333 -0.014653000005488 -0.027812000021951 0.33996695084507 0.076288266607901
18 21 2 0.83333333333333 0.010172000021951 0.011240999983537 0.26014242576773 0.020919999936173
18 22 2 0.83333333333333 0.010172000021951 0.011240999983537 0.26014242576773 0.020919999936173
18 23 2 0.83333333333333 0.010172000021951 -0.004386 0.30005468824211 0.069194303392389
19 21 2 0.83333333333333 0.010172000021951 0.011240999983537 0.26014242576773 0.020919999936173
19 22 2 0.83333333333333 0.010172000021951 0.011240999983537 0.26014242576773 0.020919999936173
19 23 2 0.83333333333333 0.010172000021951 -0.004386 0.30005468824211 0.069194303392389
20 27 2 0.83333333333333 -0.026450999983537 0.011510999983537 0.30005468824211 0.069194303392389
20 28 2 0.83333333333333 -0.026450999983537 0.011510999983537 0.30005468824211 0.069194303392389
20 29 2 0.83333333333333 -0.026450999983537 -0.016520999983537 0.33996695084507 0.076288266607901
21 24 2 0.83333333333333 0.011240999983537 0.0068330000054878 0.26014242576773 0.020919999936173
21 25 2 0.83333333333333 0.011240999983537 0.0068330000054878 0.26014242576773 0.020919999936173
21 26 2 0.83333333333333 0.011240999983537 -0.027812000021951 0.30005468824211 0.069194303392389
22 24 2 0.83333333333333 0.011240999983537 0.0068330000054878 0.26014242576773 0.020919999936173
22 25 2 0.83333333333333 0.011240999983537 0.0068330000054878 0.26014242576773 0.020919999936173
22 26 2 0.83333333333333 0.011240999983537 -0.027812000021951 0.30005468824211 0.069194303392389
23 30 2 0.83333333333333 -0.004386 0.010573000005488 0.30005468824211 0.069194303392389
23 31 2 0.83333333333333 -0.004386 0.010573000005488 0.30005468824211 0.069194303392389
23 32 2 0.83333333333333 -0.004386 -0.026953999989024 0.33996695084507 0.076288266607901
24 27 2 0.83333333333333 0.0068330000054878 0.011510999983537 0.26014242576773 0.020919999936173
24 28 2 0.83333333333333 0.0068330000054878 0.011510999983537 0.26014242576773 0.020919999936173
24 29 2 0.83333333333333 0.0068330000054878 -0.016520999983537 0.30005468824211 0.069194303392389
25 27 2 0.83333333333333 0.0068330000054878 0.011510999983537 0.26014242576773 0.020919999936173
25 28 2 0.83333333333333 0.0068330000054878 0.011510999983537 0.26014242576773 0.020919999936173
25 29 2 0.83333333333333 0.0068330000054878 -0.016520999983537 0.30005468824211 0.069194303392389
26 33 2 0.83333333333333 -0.027812000021951 0.020430999983537 0.30005468824211 0.069194303392389
26 34 2 0.83333333333333 -0.027812000021951 0.020430999983537 0.30005468824211 0.069194303392389
26 35 2 0.83333333333333 -0.027812000021951 -0.002435 0.33996695084507 0.076288266607901
27 30 2 0.83333333333333 0.011510999983537 0.010573000005488 0.26014242576773 0.020919999936173
27 31 2 0.83333333333333 0.011510999983537 0.010573000005488 0.26014242576773 0.020919999936173
27 32 2 0.83333333333333 0.011510999983537 -0.026953999989024 0.30005468824211 0.069194303392389
28 30 2 0.83333333333333 0.011510999983537 0.010573000005488 0.26014242576773 0.020919999936173
28 31 2 0.83333333333333 0.011510999983537 0.010573000005488 0.26014242576773 0.020919999936173
28 32 2 0.83333333333333 0.011510999983537 -0.026953999989024 0.30005468824211 0.069194303392389
29 36 2 0.83333333333333 -0.016520999983537 0.018859000016463 0.30005468824211 0.069194303392389
29 37 2 0.83333333333333 -0.016520999983537 0.018859000016463 0.30005468824211 0.069194303392389
29 38 2 0.83333333333333 -0.016520999983537 -0.1642 0.33996695084507 0.076288266607901
30 33 2 0.83333333333333 0.010573000005488 0.020430999983537 0.26014242576773 0.020919999936173
30 34 2 0.83333333333333 0.010573000005488 0.020430999983537 0.26014242576773 0.020919999936173
30 35 2 0.83333333333333 0.010573000005488 -0.002435 0.30005468824211 0.069194303392389
31 33 2 0.83333333333333 0.010573000005488 0.020430999983537 0.26014242576773 0.020919999936173
31 34 2 0.83333333333333 0.010573000005488 0.020430999983537 0.26014242576773 0.020919999936173
31 35 2 0.83333333333333 0.010573000005488 -0.002435 0.30005468824211 0.069194303392389
32 39 2 0.83333333333333 -0.026953999989024 0.053943999989024 0.30005468824211 0.069194303392389
32 40 2 0.83333333333333 -0.026953999989024 0.053943999989024 0.30005468824211 0.069194303392389
32 41 2 0.83333333333333 -0.026953999989024 0.8883589996872 0.33996695087407 0.20291752963184
33 36 2 0.83333333333333 0.020430999983537 0.018859000016463 0.26014242576773 0.020919999936173
33 37 2 0.83333333333333 0.020430999983537 0.018859000016463 0.26014242576773 0.020919999936173
33 38 2 0.83333333333333 0.020430999983537 -0.1642 0.30005468824211 0.069194303392389
34 36 2 0.83333333333333 0.020430999983537 0.018859000016463 0.26014242576773 0.020919999936173
34 37 2 0.83333333333333 0.020430999983537 0.018859000016463 0.26014242576773 0.020919999936173
34 38 2 0.83333333333333 0.020430999983537 -0.1642 0.30005468824211 0.069194303392389
35 42 2 0.83333333333333 -0.002435 -0.65080200084512 0.31797957047595 0.31708813257529
35 43 2 0.83333333333333 -0.002435 -0.59382599891342 0.31998409262799 0.28529542121767
36 39 2 0.83333333333333 0.018859000016463 0.053943999989024 0.26014242576773 0.020919999936173
36 40 2 0.83333333333333 0.018859000016463 0.053943999989024 0.26014242576773 0.020919999936173
36 41 2 0.83333333333333 0.018859000016463 0.8883589996872 0.30005468825729 0.061349482798597
37 39 2 0.83333333333333 0.018859000016463 0.053943999989024 0.26014242576773 0.020919999936173
37 40 2 0.83333333333333 0.018859000016463 0.053943999989024 0.26014242576773 0.020919999936173
37 41 2 0.83333333333333 0.018859000016463 0.8883589996872 0.30005468825729 0.061349482798597
38 44 2 0.83333333333333 -0.1642 0.27377599973659 0.33996695084507 0.2288647998237
39 42 2 0.83333333333333 0.053943999989024 -0.65080200084512 0.27806730790153 0.095867483596702
39 43 2 0.83333333333333 0.053943999989024 -0.59382599891342 0.2800718300513 0.086255369632554
40 42 2 0.83333333333333 0.053943999989024 -0.65080200084512 0.27806730790153 0.095867483596702
40 43 2 0.83333333333333 0.053943999989024 -0.59382599891342 0.2800718300513 0.086255369632554
41 45 2 0.83333333333333 0.8883589996872 0.044573999989024 0.29355112761526 0.076870681673027
41 46 2 0.83333333333333 0.8883589996872 0.044573999989024 0.29355112761526 0.076870681673027
41 47 2 0.83333333333333 0.8883589996872 0.3390040000439 0.33996695087407 0.20291752963184
42 44 2 0.83333333333333 -0.65080200084512 0.27377599973659 0.31797957047595 0.31708813257529
43 48 2 0.83333333333333 -0.59382599891342 0.032843000005488 0.27356826939641 0.10807766839674
43 49 2 0.83333333333333 -0.59382599891342 0.040966999994512 0.31998409262799 0.28529542121767
43 67 2 0.83333333333333 -0.59382599891342 -0.57547999978049 0.30000123432245 0.35564000022068
44 50 2 0.83333333333333 0.27377599973659 0.090994000208536 0.29355112776543 0.086700213146672
44 51 2 0.83333333333333 0.27377599973659 0.090994000208536 0.29355112776543 0.086700213146672
44 52 2 0.83333333333333 0.27377599973659 -0.54662299984085 0.31998409262799 0.28529542121767
44 68 2 0.83333333333333 0.27377599973659 0.8693400009878 0.33996695087407 0.20291752963184
45 48 2 0.83333333333333 0.044573999989024 0.032843000005488 0.24713530426422 0.032844400205981
45 49 2 0.83333333333333 0.044573999989024 0.040966999994512 0.29355112776543 0.086700213146672
45 67 2 0.83333333333333 0.044573999989024 -0.57547999978049 0.27356826939641 0.10807766839674
46 48 2 0.83333333333333 0.044573999989024 0.032843000005488 0.24713530426422 0.032844400205981
46 49 2 0.83333333333333 0.044573999989024 0.040966999994512 0.29355112776543 0.086700213146672
46 67 2 0.83333333333333 0.044573999989024 -0.57547999978049 0.27356826939641 0.10807766839674
47 53 2 0.83333333333333 0.3390040000439 1.3736559984195 0.35707220617836 0.30944633210394
47 69 2 0.83333333333333 0.3390040000439 -0.64919899793111 0.31797957047595 0.31708813257529
47 107 2 0.83333333333333 0.3390040000439 -0.1642 0.33996695084507 0.2288647998237
48 50 2 0.83333333333333 0.032843000005488 0.090994000208536 0.24713530426422 0.032844400205981
48 51 2 0.83333333333333 0.032843000005488 0.090994000208536 0.24713530426422 0.032844400205981
48 52 2 0.83333333333333 0.032843000005488 -0.54662299984085 0.27356826939641 0.10807766839674
48 68 2 0.83333333333333 0.032843000005488 0.8693400009878 0.29355112761526 0.076870681673027
49 54 2 0.83333333333333 0.040966999994512 -0.51454200018658 0.31998409262799 0.28529542121767
49 65 2 0.83333333333333 0.040966999994512 -0.8774470017506 0.31797957047595 0.31708813257529
49 66 2 0.83333333333333 0.040966999994512 -0.8774470017506 0.31797957047595 0.31708813257529
49 68 2 0.83333333333333 0.040966999994512 0.8693400009878 0.33996695087407 0.20291752963184
50 53 2 0.83333333333333 0.090994000208536 1.3736559984195 0.31065638299277 0.11722669057481
50 67 2 0.83333333333333 0.090994000208536 -0.57547999978049 0.27356826939641 0.10807766839674
51 53 2 0.83333333333333 0.090994000208536 1.3736559984195 0.31065638299277 0.11722669057481
51 67 2 0.83333333333333 0.090994000208536 -0.57547999978049 0.27356826939641 0.10807766839674
52 55 2 0.83333333333333 -0.54662299984085 0.075159000235975 0.31998409262799 0.28529542121767
52 67 2 0.83333333333333 -0.54662299984085 -0.57547999978049 0.30000123432245 0.35564000022068
53 56 2 0.83333333333333 1.3736559984195 0.091516000175609 0.31065638299277 0.11722669057481
53 57 2 0.83333333333333 1.3736559984195 0.091516000175609 0.31065638299277 0.11722669057481
53 58 2 0.83333333333333 1.3736559984195 0.077318999796952 0.35707220617836 0.30944633210394
54 59 2 0.83333333333333 -0.51454200018658 0.091630000054878 0.24799947608237 0.10807766872372
54 60 2 0.83333333333333 -0.51454200018658 0.091630000054878 0.24799947608237 0.10807766872372
54 61 2 0.83333333333333 -0.51454200018658 -0.36813199980244 0.31250054330942 0.35564000053052
55 62 2 0.83333333333333 0.075159000235975 0.34854899985183 0.22343739849812 0.086700213704004
55 63 2 0.83333333333333 0.075159000235975 0.34854899985183 0.22343739849812 0.086700213704004
55 64 2 0.83333333333333 0.075159000235975 0.34854899985183 0.22343739849812 0.086700213704004
55 65 2 0.83333333333333 0.075159000235975 -0.8774470017506 0.31797957047595 0.31708813257529
55 66 2 0.83333333333333 0.075159000235975 -0.8774470017506 0.31797957047595 0.31708813257529
56 59 2 0.83333333333333 0.091516000175609 0.091630000054878 0.22156651118302 0.032844400019638
56 60 2 0.83333333333333 0.091516000175609 0.091630000054878 0.22156651118302 0.032844400019638
56 61 2 0.83333333333333 0.091516000175609 -0.36813199980244 0.2860675785499 0.10807766765337
57 59 2 0.83333333333333 0.091516000175609 0.091630000054878 0.22156651118302 0.032844400019638
57 60 2 0.83333333333333 0.091516000175609 0.091630000054878 0.22156651118302 0.032844400019638
57 61 2 0.83333333333333 0.091516000175609 -0.36813199980244 0.2860675785499 0.10807766765337
59 62 2 0.83333333333333 0.091630000054878 0.34854899985183 0.1514527820581 0.032844400050852
59 63 2 0.83333333333333 0.091630000054878 0.34854899985183 0.1514527820581 0.032844400050852
59 64 2 0.83333333333333 0.091630000054878 0.34854899985183 0.1514527820581 0.032844400050852
60 62 2 0.83333333333333 0.091630000054878 0.34854899985183 0.1514527820581 0.032844400050852
60 63 2 0.83333333333333 0.091630000054878 0.34854899985183 0.1514527820581 0.032844400050852
60 64 2 0.83333333333333 0.091630000054878 0.34854899985183 0.1514527820581 0.032844400050852
67 104 2 0.83333333333333 -0.57547999978049 -0.002435 0.31998409262799 0.28529542121767
67 108 2 0.83333333333333 -0.57547999978049 0.053943999989024 0.2800718300513 0.086255369632554
67 109 2 0.83333333333333 -0.57547999978049 0.053943999989024 0.2800718300513 0.086255369632554
68 101 2 0.83333333333333 0.8693400009878 -0.026953999989024 0.33996695087407 0.20291752963184
68 105 2 0.83333333333333 0.8693400009878 0.018859000016463 0.30005468825729 0.061349482798597
68 106 2 0.83333333333333 0.8693400009878 0.018859000016463 0.30005468825729 0.061349482798597
69 104 2 0.83333333333333 -0.64919899793111 -0.002435 0.31797957047595 0.31708813257529
69 108 2 0.83333333333333 -0.64919899793111 0.053943999989024 0.27806730790153 0.095867483596702
69 109 2 0.83333333333333 -0.64919899793111 0.053943999989024 0.27806730790153 0.095867483596702
70 75 2 0.83333333333333 0.025510999983537 0.0075309999835367 0.26014242576773 0.020919999936173
70 76 2 0.83333333333333 0.025510999983537 0.0075309999835367 0.26014242576773 0.020919999936173
70 77 2 0.83333333333333 0.025510999983537 -0.028093999989024 0.30005468824211 0.069194303392389
71 78 2 0.83333333333333 -0.11171200013171 0.017207999978049 0.30005468824211 0.069194303392389
71 79 2 0.83333333333333 -0.11171200013171 0.017207999978049 0.30005468824211 0.069194303392389
71 80 2 0.83333333333333 -0.11171200013171 -0.031786999994512 0.33996695084507 0.076288266607901
72 75 2 0.83333333333333 0.025510999983537 0.0075309999835367 0.26014242576773 0.020919999936173
72 76 2 0.83333333333333 0.025510999983537 0.0075309999835367 0.26014242576773 0.020919999936173
72 77 2 0.83333333333333 0.025510999983537 -0.028093999989024 0.30005468824211 0.069194303392389
73 75 2 0.83333333333333 0.025510999983537 0.0075309999835367 0.26014242576773 0.020919999936173
73 76 2 0.83333333333333 0.025510999983537 0.0075309999835367 0.26014242576773 0.020919999936173
73 77 2 0.83333333333333 0.025510999983537 -0.028093999989024 0.30005468824211 0.069194303392389
74 81 2 0.83333333333333 0.017463000005488 0.012676999994512 0.30005468824211 0.069194303392389
74 82 2 0.83333333333333 0.017463000005488 0.012676999994512 0.30005468824211 0.069194303392389
74 83 2 0.83333333333333 0.017463000005488 -0.021024999972561 0.33996695084507 0.076288266607901
75 78 2 0.83333333333333 0.0075309999835367 0.017207999978049 0.26014242576773 0.020919999936173
75 79 2 0.83333333333333 0.0075309999835367 0.017207999978049 0.26014242576773 0.020919999936173
75 80 2 0.83333333333333 0.0075309999835367 -0.031786999994512 0.30005468824211 0.069194303392389
76 78 2 0.83333333333333 0.0075309999835367 0.017207999978049 0.26014242576773 0.020919999936173
76 79 2 0.83333333333333 0.0075309999835367 0.017207999978049 0.26014242576773 0.020919999936173
76 80 2 0.83333333333333 0.0075309999835367 -0.031786999994512 0.30005468824211 0.069194303392389
77 84 2 0.83333333333333 -0.028093999989024 0.010036999994512 0.30005468824211 0.069194303392389
77 85 2 0.83333333333333 -0.028093999989024 0.010036999994512 0.30005468824211 0.069194303392389
77 86 2 0.83333333333333 -0.028093999989024 -0.014653000005488 0.33996695084507 0.076288266607901
78 81 2 0.83333333333333 0.017207999978049 0.012676999994512 0.26014242576773 0.020919999936173
78 82 2 0.83333333333333 0.017207999978049 0.012676999994512 0.26014242576773 0.020919999936173
78 83 2 0.83333333333333 0.017207999978049 -0.021024999972561 0.30005468824211 0.069194303392389
79 81 2 0.83333333333333 0.017207999978049 0.012676999994512 0.26014242576773 0.020919999936173
79 82 2 0.83333333333333 0.017207999978049 0.012676999994512 0.26014242576773 0.020919999936173
79 83 2 0.83333333333333 0.017207999978049 -0.021024999972561 0.30005468824211 0.069194303392389
80 87 2 0.83333333333333 -0.031786999994512 0.010172000021951 0.30005468824211 0.069194303392389
80 88 2 0.83333333333333 -0.031786999994512 0.010172000021951 0.30005468824211 0.069194303392389
80 89 2 0.83333333333333 -0.031786999994512 -0.026450999983537 0.33996695084507 0.076288266607901
81 84 2 0.83333333333333 0.012676999994512 0.010036999994512 0.26014242576773 0.020919999936173
81 85 2 0.83333333333333 0.012676999994512 0.010036999994512 0.26014242576773 0.020919999936173
81 86 2 0.83333333333333 0.012676999994512 -0.014653000005488 0.30005468824211 0.069194303392389
82 84 2 0.83333333333333 0.012676999994512 0.010036999994512 0.26014242576773 0.020919999936173
82 85 2 0.83333333333333 0.012676999994512 0.010036999994512 0.26014242576773 0.020919999936173
82 86 2 0.83333333333333 0.012676999994512 -0.014653000005488 0.30005468824211 0.069194303392389
83 90 2 0.83333333333333 -0.021024999972561 0.011240999983537 0.30005468824211 0.069194303392389
83 91 2 0.83333333333333 -0.021024999972561 0.011240999983537 0.30005468824211 0.069194303392389
83 92 2 0.83333333333333 -0.021024999972561 -0.004386 0.33996695084507 0.076288266607901
84 87 2 0.83333333333333 0.010036999994512 0.010172000021951 0.26014242576773 0.020919999936173
84 88 2 0.83333333333333 0.010036999994512 0.010172000021951 0.26014242576773 0.020919999936173
84 89 2 0.83333333333333 0.010036999994512 -0.026450999983537 0.30005468824211 0.069194303392389
85 87 2 0.83333333333333 0.010036999994512 0.010172000021951 0.26014242576773 0.020919999936173
85 88 2 0.83333333333333 0.010036999994512 0.010172000021951 0.26014242576773 0.020919999936173
85 89 2 0.83333333333333 0.010036999994512 -0.026450999983537 0.30005468824211 0.069194303392389
86 93 2 0.83333333333333 -0.014653000005488 0.0068330000054878 0.30005468824211 0.069194303392389
86 94 2 0.83333333333333 -0.014653000005488 0.0068330000054878 0.30005468824211 0.069194303392389
86 95 2 0.83333333333333 -0.014653000005488 -0.027812000021951 0.33996695084507 0.076288266607901
87 90 2 0.83333333333333 0.010172000021951 0.011240999983537 0.26014242576773 0.020919999936173
87 91 2 0.83333333333333 0.010172000021951 0.011240999983537 0.26014242576773 0.020919999936173
87 92 2 0.83333333333333 0.010172000021951 -0.004386 0.30005468824211 0.069194303392389
88 90 2 0.83333333333333 0.010172000021951 0.011240999983537 0.26014242576773 0.020919999936173
88 91 2 0.83333333333333 0.010172000021951 0.011240999983537 0.26014242576773 0.020919999936173
88 92 2 0.83333333333333 0.010172000021951 -0.004386 0.30005468824211 0.069194303392389
89 96 2 0.83333333333333 -0.026450999983537 0.011510999983537 0.30005468824211 0.069194303392389
89 97 2 0.83333333333333 -0.026450999983537 0.011510999983537 0.30005468824211 0.069194303392389
89 98 2 0.83333333333333 -0.026450999983537 -0.016520999983537 0.33996695084507 0.076288266607901
90 93 2 0.83333333333333 0.011240999983537 0.0068330000054878 0.26014242576773 0.020919999936173
90 94 2 0.83333333333333 0.011240999983537 0.0068330000054878 0.26014242576773 0.020919999936173
90 95 2 0.83333333333333 0.011240999983537 -0.027812000021951 0.30005468824211 0.069194303392389
91 93 2 0.83333333333333 0.011240999983537 0.0068330000054878 0.26014242576773 0.020919999936173
91 94 2 0.83333333333333 0.011240999983537 0.0068330000054878 0.26014242576773 0.020919999936173
91 95 2 0.83333333333333 0.011240999983537 -0.027812000021951 0.30005468824211 0.069194303392389
92 99 2 0.83333333333333 -0.004386 0.010573000005488 0.30005468824211 0.069194303392389
92 100 2 0.83333333333333 -0.004386 0.010573000005488 0.30005468824211 0.069194303392389
92 101 2 0.83333333333333 -0.004386 -0.026953999989024 0.33996695084507 0.076288266607901
93 96 2 0.83333333333333 0.0068330000054878 0.011510999983537 0.26014242576773 0.020919999936173
93 97 2 0.83333333333333 0.0068330000054878 0.011510999983537 0.26014242576773 0.020919999936173
93 98 2 0.83333333333333 0.0068330000054878 -0.016520999983537 0.30005468824211 0.069194303392389
94 96 2 0.83333333333333 0.0068330000054878 0.011510999983537 0.26014242576773 0.020919999936173
94 97 2 0.83333333333333 0.0068330000054878 0.011510999983537 0.26014242576773 0.020919999936173
94 98 2 0.83333333333333 0.0068330000054878 -0.016520999983537 0.30005468824211 0.069194303392389
95 102 2 0.83333333333333 -0.027812000021951 0.020430999983537 0.30005468824211 0.069194303392389
95 103 2 0.83333333333333 -0.027812000021951 0.020430999983537 0.30005468824211 0.069194303392389
95 104 2 0.83333333333333 -0.027812000021951 -0.002435 0.33996695084507 0.076288266607901
96 99 2 0.83333333333333 0.011510999983537 0.010573000005488 0.26014242576773 0.020919999936173
96 100 2 0.83333333333333 0.011510999983537 0.010573000005488 0.26014242576773 0.020919999936173
96 101 2 0.83333333333333 0.011510999983537 -0.026953999989024 0.30005468824211 0.069194303392389
97 99 2 0.83333333333333 0.011510999983537 0.010573000005488 0.26014242576773 0.020919999936173
97 100 2 0.83333333333333 0.011510999983537 0.010573000005488 0.26014242576773 0.020919999936173
97 101 2 0.83333333333333 0.011510999983537 -0.026953999989024 0.30005468824211 0.069194303392389
98 105 2 0.83333333333333 -0.016520999983537 0.018859000016463 0.30005468824211 0.069194303392389
98 106 2 0.83333333333333 -0.016520999983537 0.018859000016463 0.30005468824211 0.069194303392389
98 107 2 0.83333333333333 -0.016520999983537 -0.1642 0.33996695084507 0.076288266607901
99 102 2 0.83333333333333 0.010573000005488 0.020430999983537 0.26014242576773 0.020919999936173
99 103 2 0.83333333333333 0.010573000005488 0.020430999983537 0.26014242576773 0.020919999936173
99 104 2 0.83333333333333 0.010573000005488 -0.002435 0.30005468824211 0.069194303392389
100 102 2 0.83333333333333 0.010573000005488 0.020430999983537 0.26014242576773 0.020919999936173
100 103 2 0.83333333333333 0.010573000005488 0.020430999983537 0.26014242576773 0.020919999936173
100 104 2 0.83333333333333 0.010573000005488 -0.002435 0.30005468824211 0.069194303392389
101 108 2 0.83333333333333 -0.026953999989024 0.053943999989024 0.30005468824211 0.069194303392389
101 109 2 0.83333333333333 -0.026953999989024 0.053943999989024 0.30005468824211 0.069194303392389
102 105 2 0.83333333333333 0.020430999983537 0.018859000016463 0.26014242576773 0.020919999936173
102 106 2 0.83333333333333 0.020430999983537 0.018859000016463 0.26014242576773 0.020919999936173
102 107 2 0.83333333333333 0.020430999983537 -0.1642 0.30005468824211 0.069194303392389
103 105 2 0.83333333333333 0.020430999983537 0.018859000016463 0.26014242576773 0.020919999936173
103 106 2 0.83333333333333 0.020430999983537 0.018859000016463 0.26014242576773 0.020919999936173
103 107 2 0.83333333333333 0.020430999983537 -0.1642 0.30005468824211 0.069194303392389
105 108 2 0.83333333333333 0.018859000016463 0.053943999989024 0.26014242576773 0.020919999936173
105 109 2 0.83333333333333 0.018859000016463 0.053943999989024 0.26014242576773 0.020919999936173
106 108 2 0.83333333333333 0.018859000016463 0.053943999989024 0.26014242576773 0.020919999936173
106 109 2 0.83333333333333 0.018859000016463 0.053943999989024 0.26014242576773 0.020919999936173

[ angles ]
;    ai     aj     ak funct         c0         c1         c2         c3
     38     41     42     1   123.1100526 569.275040
     38     41     43     1   111.9600481 579.567680
     35     38     41     1   110.5300474 533.794720
     32     35     38     1   112.0500483 394.969600
     29     32     35     1   112.0500483 394.969600
     26     29     32     1   112.0500483 394.969600
     23     26     29     1   112.0500483 394.969600
     20     23     26     1   112.0500483 394.969600
     17     20     23     1   112.0500483 394.969600
     14     17     20     1   112.0500483 394.969600
     11     14     17     1   112.0500483 394.969600
      8     11     14     1   112.0500483 394.969600
      5      8     11     1   112.0500483 394.969600
      2      5      8     1   112.0500483 394.969600
     69     68    107     1   123.1100526 569.275040
     68    107    104     1   110.5300474 533.794720
     67     68     69     1   123.3300529 635.382240
     67     68    107     1   111.9600481 579.567680
     65     53     66     1   119.9000514 1171.520000
     55     58     61     1   114.3200492 539.317600
     54     53     65     1   108.2300464 836.800000
     54     53     66     1   108.2300464 836.800000
     54     55     58     1   108.4200467 567.183040
     53     54     55     1   120.5000516 836.800000
     52     53     54     1   102.6000440 753.120000
     52     53     65     1   108.2300464 836.800000
     52     53     66     1   108.2300464 836.800000
     49     47     67     1   108.4200467 567.183040
     49     52     53     1   120.5000516 836.800000
     47     49     52     1   108.4200467 567.183040
     47     67     68     1   115.1400492 532.455840
     44     47     49     1   110.6300475 528.941280
     44     47     67     1   108.4200467 567.183040
     43     44     47     1   108.4200467 567.183040
     42     41     43     1   123.3300529 635.382240
     41     43     44     1   115.1400492 532.455840
    101    104    107     1   112.0500483 394.969600
     98    101    104     1   112.0500483 394.969600
     95     98    101     1   112.0500483 394.969600
     92     95     98     1   112.0500483 394.969600
     89     92     95     1   112.0500483 394.969600
     86     89     92     1   112.0500483 394.969600
     83     86     89     1   112.0500483 394.969600
     80     83     86     1   112.0500483 394.969600
     77     80     83     1   112.0500483 394.969600
     74     77     80     1   112.0500483 394.969600
     71     74     77     1   112.0500483 394.969600
     40     38     41     1   109.6800468 394.969600
     39     38     40     1   108.3500467 329.950240
     39     38     41     1   109.6800468 394.969600
     37     35     38     1   110.0500475 388.024160
     36     35     38     1   110.0500475 388.024160
     36     35     37     1   108.3500467 329.950240
     35     38     40     1   110.0500475 388.024160
     35     38     39     1   110.0500475 388.024160
     34     32     35     1   110.0500475 388.024160
     33     32     35     1   110.0500475 388.024160
     33     32     34     1   108.3500467 329.950240
     32     35     37     1   110.0500475 388.024160
     32     35     36     1   110.0500475 388.024160
     31     29     32     1   110.0500475 388.024160
     30     29     32     1   110.0500475 388.024160
     30     29     31     1   108.3500467 329.950240
     29     32     34     1   110.0500475 388.024160
     29     32     33     1   110.0500475 388.024160
     28     26     29     1   110.0500475 388.024160
     27     26     29     1   110.0500475 388.024160
     27     26     28     1   108.3500467 329.950240
     26     29     30     1   110.0500475 388.024160
     26     29     31     1   110.0500475 388.024160
     25     23     26     1   110.0500475 388.024160
     24     23     26     1   110.0500475 388.024160
     24     23     25     1   108.3500467 329.950240
     23     26     27     1   110.0500475 388.024160
     23     26     28     1   110.0500475 388.024160
     22     20     23     1   110.0500475 388.024160
     21     20     23     1   110.0500475 388.024160
     21     20     22     1   108.3500467 329.950240
     20     23     24     1   110.0500475 388.024160
     20     23     25     1   110.0500475 388.024160
     19     17     20     1   110.0500475 388.024160
     18     17     20     1   110.0500475 388.024160
     18     17     19     1   108.3500467 329.950240
     17     20     22     1   110.0500475 388.024160
     17     20     21     1   110.0500475 388.024160
     16     14     17     1   110.0500475 388.024160
     15     14     17     1   110.0500475 388.024160
     15     14     16     1   108.3500467 329.950240
     14     17     18     1   110.0500475 388.024160
     14     17     19     1   110.0500475 388.024160
     13     11     14     1   110.0500475 388.024160
     12     11     14     1   110.0500475 388.024160
     12     11     13     1   108.3500467 329.950240
     11     14     16     1   110.0500475 388.024160
     11     14     15     1   110.0500475 388.024160
     10      8     11     1   110.0500475 388.024160
      9      8     11     1   110.0500475 388.024160
      9      8     10     1   108.3500467 329.950240
      8     11     12     1   110.0500475 388.024160
      8     11     13     1   110.0500475 388.024160
      7      5      8     1   110.0500475 388.024160
      6      5      8     1   110.0500475 388.024160
      6      5      7     1   108.3500467 329.950240
      5      8     10     1   110.0500475 388.024160
      5      8      9     1   110.0500475 388.024160
      4      2      5     1   110.0500475 388.024160
      3      2      5     1   110.0500475 388.024160
      3      2      4     1   108.3500467 329.950240
      2      5      6     1   110.0500475 388.024160
      2      5      7     1   110.0500475 388.024160
      1      2      5     1   110.0500475 388.024160
      1      2      3     1   108.3500467 329.950240
      1      2      4     1   108.3500467 329.950240
     68    107    109     1   109.6800468 394.969600
     68    107    108     1   109.6800468 394.969600
     63     61     64     1   108.1100462 339.071360
     62     61     63     1   108.1100462 339.071360
     62     61     64     1   108.1100462 339.071360
     60     58     61     1   107.9100461 410.199360
     59     58     60     1   110.7400473 326.686720
     59     58     61     1   107.9100461 410.199360
     58     61     62     1   110.1100470 386.517920
     58     61     63     1   110.1100470 386.517920
     58     61     64     1   110.1100470 386.517920
     57     55     58     1   110.0700471 387.940480
     56     55     57     1   109.5500472 327.858240
     56     55     58     1   110.0700471 387.940480
     55     58     59     1   111.7400478 385.095360
     55     58     60     1   111.7400478 385.095360
     54     55     56     1   108.8200469 425.429120
     54     55     57     1   108.8200469 425.429120
     51     49     52     1   108.8200469 425.429120
     50     49     51     1   109.5500472 327.858240
     50     49     52     1   108.8200469 425.429120
     48     47     49     1   110.0700471 387.940480
     48     47     67     1   108.8200469 425.429120
     47     49     50     1   110.0700471 387.940480
     47     49     51     1   110.0700471 387.940480
     46     44     47     1   110.0700471 387.940480
     45     44     46     1   109.5500472 327.858240
     45     44     47     1   110.0700471 387.940480
     44     47     48     1   110.0700471 387.940480
     43     44     45     1   108.8200469 425.429120
     43     44     46     1   108.8200469 425.429120
    108    107    109     1   108.3500467 329.950240
    106    104    107     1   110.0500475 388.024160
    105    104    107     1   110.0500475 388.024160
    105    104    106     1   108.3500467 329.950240
    104    107    109     1   110.0500475 388.024160
    104    107    108     1   110.0500475 388.024160
    103    101    104     1   110.0500475 388.024160
    102    101    104     1   110.0500475 388.024160
    102    101    103     1   108.3500467 329.950240
    101    104    106     1   110.0500475 388.024160
    101    104    105     1   110.0500475 388.024160
    100     98    101     1   110.0500475 388.024160
     99     98    101     1   110.0500475 388.024160
     99     98    100     1   108.3500467 329.950240
     98    101    103     1   110.0500475 388.024160
     98    101    102     1   110.0500475 388.024160
     97     95     98     1   110.0500475 388.024160
     96     95     98     1   110.0500475 388.024160
     96     95     97     1   108.3500467 329.950240
     95     98     99     1   110.0500475 388.024160
     95     98    100     1   110.0500475 388.024160
     94     92     95     1   110.0500475 388.024160
     93     92     95     1   110.0500475 388.024160
     93     92     94     1   108.3500467 329.950240
     92     95     96     1   110.0500475 388.024160
     92     95     97     1   110.0500475 388.024160
     91     89     92     1   110.0500475 388.024160
     90     89     92     1   110.0500475 388.024160
     90     89     91     1   108.3500467 329.950240
     89     92     93     1   110.0500475 388.024160
     89     92     94     1   110.0500475 388.024160
     88     86     89     1   110.0500475 388.024160
     87     86     89     1   110.0500475 388.024160
     87     86     88     1   108.3500467 329.950240
     86     89     91     1   110.0500475 388.024160
     86     89     90     1   110.0500475 388.024160
     85     83     86     1   110.0500475 388.024160
     84     83     86     1   110.0500475 388.024160
     84     83     85     1   108.3500467 329.950240
     83     86     87     1   110.0500475 388.024160
     83     86     88     1   110.0500475 388.024160
     82     80     83     1   110.0500475 388.024160
     81     80     83     1   110.0500475 388.024160
     81     80     82     1   108.3500467 329.950240
     80     83     85     1   110.0500475 388.024160
     80     83     84     1   110.0500475 388.024160
     79     77     80     1   110.0500475 388.024160
     78     77     80     1   110.0500475 388.024160
     78     77     79     1   108.3500467 329.950240
     77     80     81     1   110.0500475 388.024160
     77     80     82     1   110.0500475 388.024160
     76     74     77     1   110.0500475 388.024160
     75     74     77     1   110.0500475 388.024160
     75     74     76     1   108.3500467 329.950240
     74     77     79     1   110.0500475 388.024160
     74     77     78     1   110.0500475 388.024160
     73     71     74     1   110.0500475 388.024160
     72     71     74     1   110.0500475 388.024160
     72     71     73     1   108.3500467 329.950240
     71     74     75     1   110.0500475 388.024160
     71     74     76     1   110.0500475 388.024160
     70     71     74     1   110.0500475 388.024160
     70     71     72     1   108.3500467 329.950240
     70     71     73     1   108.3500467 329.950240


[ dihedrals ]
;    ai     aj     ak     al funct         c0         c1         c2         c3         c4         c5
     38     41     43     44     1  180.0000771  11.2968000  2
     35     38     41     42     1  180.0000771  0.0000000  2
     35     38     41     43     1  180.0000771  0.0000000  2
     32     35     38     41     1  0.0000000  0.6527040  3
     29     32     35     38     1  0.0000000  0.4184000  1
     29     32     35     38     1  0.0000000  0.4184000  2
     29     32     35     38     1  0.0000000  1.2552000  3
     29     32     35     38     1  0.0000000  0.4184000  4
     29     32     35     38     1  0.0000000  0.4184000  5
     26     29     32     35     1  0.0000000  0.4184000  1
     26     29     32     35     1  0.0000000  0.4184000  2
     26     29     32     35     1  0.0000000  1.2552000  3
     26     29     32     35     1  0.0000000  0.4184000  4
     26     29     32     35     1  0.0000000  0.4184000  5
     23     26     29     32     1  0.0000000  0.4184000  1
     23     26     29     32     1  0.0000000  0.4184000  2
     23     26     29     32     1  0.0000000  1.2552000  3
     23     26     29     32     1  0.0000000  0.4184000  4
     23     26     29     32     1  0.0000000  0.4184000  5
     20     23     26     29     1  0.0000000  0.4184000  1
     20     23     26     29     1  0.0000000  0.4184000  2
     20     23     26     29     1  0.0000000  1.2552000  3
     20     23     26     29     1  0.0000000  0.4184000  4
     20     23     26     29     1  0.0000000  0.4184000  5
     17     20     23     26     1  0.0000000  0.4184000  1
     17     20     23     26     1  0.0000000  0.4184000  2
     17     20     23     26     1  0.0000000  1.2552000  3
     17     20     23     26     1  0.0000000  0.4184000  4
     17     20     23     26     1  0.0000000  0.4184000  5
     14     17     20     23     1  0.0000000  0.4184000  1
     14     17     20     23     1  0.0000000  0.4184000  2
     14     17     20     23     1  0.0000000  1.2552000  3
     14     17     20     23     1  0.0000000  0.4184000  4
     14     17     20     23     1  0.0000000  0.4184000  5
     11     14     17     20     1  0.0000000  0.4184000  1
     11     14     17     20     1  0.0000000  0.4184000  2
     11     14     17     20     1  0.0000000  1.2552000  3
     11     14     17     20     1  0.0000000  0.4184000  4
     11     14     17     20     1  0.0000000  0.4184000  5
      8     11     14     17     1  0.0000000  0.4184000  1
      8     11     14     17     1  0.0000000  0.4184000  2
      8     11     14     17     1  0.0000000  1.2552000  3
      8     11     14     17     1  0.0000000  0.4184000  4
      8     11     14     17     1  0.0000000  0.4184000  5
      5      8     11     14     1  0.0000000  0.4184000  1
      5      8     11     14     1  0.0000000  0.4184000  2
      5      8     11     14     1  0.0000000  1.2552000  3
      5      8     11     14     1  0.0000000  0.4184000  4
      5      8     11     14     1  0.0000000  0.4184000  5
      2      5      8     11     1  0.0000000  0.4184000  1
      2      5      8     11     1  0.0000000  0.4184000  2
      2      5      8     11     1  0.0000000  1.2552000  3
      2      5      8     11     1  0.0000000  0.4184000  4
      2      5      8     11     1  0.0000000  0.4184000  5
     69     68    107    104     1  180.0000771  0.0000000  2
     68    107    104    101     1  0.0000000  0.6527040  3
     67     68    107    104     1  180.0000771  0.0000000  2
     55     54     53     65     1  0.0000000  0.0000000  1
     55     54     53     65     1  0.0000000  0.8368000  2
     55     54     53     65     1  0.0000000  0.0000000  3
     55     54     53     65     1  0.0000000  0.0000000  4
     55     54     53     65     1  0.0000000  0.0000000  5
     55     54     53     66     1  0.0000000  0.0000000  1
     55     54     53     66     1  0.0000000  0.8368000  2
     55     54     53     66     1  0.0000000  0.0000000  3
     55     54     53     66     1  0.0000000  0.0000000  4
     55     54     53     66     1  0.0000000  0.0000000  5
     54     55     58     61     1  0.0000000  4.1840000  3
     53     54     55     58     1  180.0000771  -3.3472000  2
     53     54     55     58     1  0.0000000  0.0000000  3
     52     49     47     67     1  0.0000000  0.0000000  1
     52     49     47     67     1  0.0000000  0.0000000  2
     52     49     47     67     1  0.0000000  0.0000000  3
     52     49     47     67     1  0.0000000  0.0000000  4
     52     49     47     67     1  0.0000000  0.0000000  5
     52     53     54     55     1  0.0000000  9.6232000  2
     52     53     54     55     1  0.0000000  2.5104000  3
     49     47     67     68     1  0.0000000  -0.4184000  1
     49     47     67     68     1  240.0001029  -1.2552000  2
     49     47     67     68     1  300.0001286  -0.8368000  3
     49     52     53     54     1  0.0000000  9.6232000  2
     49     52     53     54     1  0.0000000  2.5104000  3
     49     52     53     65     1  0.0000000  0.0000000  1
     49     52     53     65     1  0.0000000  0.8368000  2
     49     52     53     65     1  0.0000000  0.0000000  3
     49     52     53     65     1  0.0000000  0.0000000  4
     49     52     53     65     1  0.0000000  0.0000000  5
     49     52     53     66     1  0.0000000  0.0000000  1
     49     52     53     66     1  0.0000000  0.8368000  2
     49     52     53     66     1  0.0000000  0.0000000  3
     49     52     53     66     1  0.0000000  0.0000000  4
     49     52     53     66     1  0.0000000  0.0000000  5
     47     49     52     53     1  180.0000771  -3.3472000  2
     47     49     52     53     1  0.0000000  0.0000000  3
     47     67     68     69     1  180.0000771  5.8576000  1
     47     67     68     69     1  180.0000771  11.2968000  2
     47     67     68    107     1  180.0000771  11.2968000  2
     44     47     49     52     1  180.0000771  3.3472000  1
     44     47     49     52     1  120.0000514  0.8368000  2
     44     47     49     52     1  60.0000257  1.6736000  3
     44     47     67     68     1  0.0000000  -0.4184000  1
     44     47     67     68     1  240.0001029  -1.2552000  2
     44     47     67     68     1  300.0001286  -0.8368000  3
     43     44     47     49     1  0.0000000  0.0000000  1
     43     44     47     49     1  0.0000000  0.0000000  2
     43     44     47     49     1  0.0000000  0.0000000  3
     43     44     47     49     1  0.0000000  0.0000000  4
     43     44     47     49     1  0.0000000  0.0000000  5
     43     44     47     67     1  180.0000771  -0.4184000  1
     43     44     47     67     1  0.0000000  1.2552000  2
     43     44     47     67     1  0.0000000  4.1840000  3
     42     41     43     44     1  180.0000771  5.8576000  1
     42     41     43     44     1  180.0000771  11.2968000  2
     41     43     44     47     1  0.0000000  -0.4184000  1
     41     43     44     47     1  240.0001029  -1.2552000  2
     41     43     44     47     1  300.0001286  -0.8368000  3
     98    101    104    107     1  0.0000000  0.4184000  1
     98    101    104    107     1  0.0000000  0.4184000  2
     98    101    104    107     1  0.0000000  1.2552000  3
     98    101    104    107     1  0.0000000  0.4184000  4
     98    101    104    107     1  0.0000000  0.4184000  5
     95     98    101    104     1  0.0000000  0.4184000  1
     95     98    101    104     1  0.0000000  0.4184000  2
     95     98    101    104     1  0.0000000  1.2552000  3
     95     98    101    104     1  0.0000000  0.4184000  4
     95     98    101    104     1  0.0000000  0.4184000  5
     92     95     98    101     1  0.0000000  0.4184000  1
     92     95     98    101     1  0.0000000  0.4184000  2
     92     95     98    101     1  0.0000000  1.2552000  3
     92     95     98    101     1  0.0000000  0.4184000  4
     92     95     98    101     1  0.0000000  0.4184000  5
     89     92     95     98     1  0.0000000  0.4184000  1
     89     92     95     98     1  0.0000000  0.4184000  2
     89     92     95     98     1  0.0000000  1.2552000  3
     89     92     95     98     1  0.0000000  0.4184000  4
     89     92     95     98     1  0.0000000  0.4184000  5
     86     89     92     95     1  0.0000000  0.4184000  1
     86     89     92     95     1  0.0000000  0.4184000  2
     86     89     92     95     1  0.0000000  1.2552000  3
     86     89     92     95     1  0.0000000  0.4184000  4
     86     89     92     95     1  0.0000000  0.4184000  5
     83     86     89     92     1  0.0000000  0.4184000  1
     83     86     89     92     1  0.0000000  0.4184000  2
     83     86     89     92     1  0.0000000  1.2552000  3
     83     86     89     92     1  0.0000000  0.4184000  4
     83     86     89     92     1  0.0000000  0.4184000  5
     80     83     86     89     1  0.0000000  0.4184000  1
     80     83     86     89     1  0.0000000  0.4184000  2
     80     83     86     89     1  0.0000000  1.2552000  3
     80     83     86     89     1  0.0000000  0.4184000  4
     80     83     86     89     1  0.0000000  0.4184000  5
     77     80     83     86     1  0.0000000  0.4184000  1
     77     80     83     86     1  0.0000000  0.4184000  2
     77     80     83     86     1  0.0000000  1.2552000  3
     77     80     83     86     1  0.0000000  0.4184000  4
     77     80     83     86     1  0.0000000  0.4184000  5
     74     77     80     83     1  0.0000000  0.4184000  1
     74     77     80     83     1  0.0000000  0.4184000  2
     74     77     80     83     1  0.0000000  1.2552000  3
     74     77     80     83     1  0.0000000  0.4184000  4
     74     77     80     83     1  0.0000000  0.4184000  5
     71     74     77     80     1  0.0000000  0.4184000  1
     71     74     77     80     1  0.0000000  0.4184000  2
     71     74     77     80     1  0.0000000  1.2552000  3
     71     74     77     80     1  0.0000000  0.4184000  4
     71     74     77     80     1  0.0000000  0.4184000  5
    107     69     68     67     4  180.0000771  43.9320000  2
     38     42     41     43     4  180.0000771  43.9320000  2
     40     38     41     42     1  0.0000000  3.3472000  1
     40     38     41     42     1  180.0000771  0.3347200  3
     40     38     41     43     1  180.0000771  0.0000000  2
     39     38     41     42     1  0.0000000  3.3472000  1
     39     38     41     42     1  180.0000771  0.3347200  3
     39     38     41     43     1  180.0000771  0.0000000  2
     37     35     38     40     1  0.0000000  0.6276000  3
     37     35     38     39     1  0.0000000  0.6276000  3
     37     35     38     41     1  0.0000000  0.6527040  3
     36     35     38     40     1  0.0000000  0.6276000  3
     36     35     38     39     1  0.0000000  0.6276000  3
     36     35     38     41     1  0.0000000  0.6527040  3
     34     32     35     38     1  0.0000000  0.6694400  3
     34     32     35     37     1  0.0000000  0.6276000  3
     34     32     35     36     1  0.0000000  0.6276000  3
     33     32     35     38     1  0.0000000  0.6694400  3
     33     32     35     37     1  0.0000000  0.6276000  3
     33     32     35     36     1  0.0000000  0.6276000  3
     32     35     38     40     1  0.0000000  0.6694400  3
     32     35     38     39     1  0.0000000  0.6694400  3
     31     29     32     35     1  0.0000000  0.6694400  3
     31     29     32     34     1  0.0000000  0.6276000  3
     31     29     32     33     1  0.0000000  0.6276000  3
     30     29     32     35     1  0.0000000  0.6694400  3
     30     29     32     34     1  0.0000000  0.6276000  3
     30     29     32     33     1  0.0000000  0.6276000  3
     29     32     35     37     1  0.0000000  0.6694400  3
     29     32     35     36     1  0.0000000  0.6694400  3
     28     26     29     32     1  0.0000000  0.6694400  3
     28     26     29     30     1  0.0000000  0.6276000  3
     28     26     29     31     1  0.0000000  0.6276000  3
     27     26     29     32     1  0.0000000  0.6694400  3
     27     26     29     30     1  0.0000000  0.6276000  3
     27     26     29     31     1  0.0000000  0.6276000  3
     26     29     32     34     1  0.0000000  0.6694400  3
     26     29     32     33     1  0.0000000  0.6694400  3
     25     23     26     29     1  0.0000000  0.6694400  3
     25     23     26     27     1  0.0000000  0.6276000  3
     25     23     26     28     1  0.0000000  0.6276000  3
     24     23     26     29     1  0.0000000  0.6694400  3
     24     23     26     27     1  0.0000000  0.6276000  3
     24     23     26     28     1  0.0000000  0.6276000  3
     23     26     29     30     1  0.0000000  0.6694400  3
     23     26     29     31     1  0.0000000  0.6694400  3
     22     20     23     26     1  0.0000000  0.6694400  3
     22     20     23     24     1  0.0000000  0.6276000  3
     22     20     23     25     1  0.0000000  0.6276000  3
     21     20     23     26     1  0.0000000  0.6694400  3
     21     20     23     24     1  0.0000000  0.6276000  3
     21     20     23     25     1  0.0000000  0.6276000  3
     20     23     26     27     1  0.0000000  0.6694400  3
     20     23     26     28     1  0.0000000  0.6694400  3
     19     17     20     23     1  0.0000000  0.6694400  3
     19     17     20     22     1  0.0000000  0.6276000  3
     19     17     20     21     1  0.0000000  0.6276000  3
     18     17     20     23     1  0.0000000  0.6694400  3
     18     17     20     22     1  0.0000000  0.6276000  3
     18     17     20     21     1  0.0000000  0.6276000  3
     17     20     23     24     1  0.0000000  0.6694400  3
     17     20     23     25     1  0.0000000  0.6694400  3
     16     14     17     20     1  0.0000000  0.6694400  3
     16     14     17     18     1  0.0000000  0.6276000  3
     16     14     17     19     1  0.0000000  0.6276000  3
     15     14     17     20     1  0.0000000  0.6694400  3
     15     14     17     18     1  0.0000000  0.6276000  3
     15     14     17     19     1  0.0000000  0.6276000  3
     14     17     20     22     1  0.0000000  0.6694400  3
     14     17     20     21     1  0.0000000  0.6694400  3
     13     11     14     17     1  0.0000000  0.6694400  3
     13     11     14     16     1  0.0000000  0.6276000  3
     13     11     14     15     1  0.0000000  0.6276000  3
     12     11     14     17     1  0.0000000  0.6694400  3
     12     11     14     16     1  0.0000000  0.6276000  3
     12     11     14     15     1  0.0000000  0.6276000  3
     11     14     17     18     1  0.0000000  0.6694400  3
     11     14     17     19     1  0.0000000  0.6694400  3
     10      8     11     14     1  0.0000000  0.6694400  3
     10      8     11     12     1  0.0000000  0.6276000  3
     10      8     11     13     1  0.0000000  0.6276000  3
      9      8     11     14     1  0.0000000  0.6694400  3
      9      8     11     12     1  0.0000000  0.6276000  3
      9      8     11     13     1  0.0000000  0.6276000  3
      8     11     14     16     1  0.0000000  0.6694400  3
      8     11     14     15     1  0.0000000  0.6694400  3
      7      5      8     11     1  0.0000000  0.6694400  3
      7      5      8     10     1  0.0000000  0.6276000  3
      7      5      8      9     1  0.0000000  0.6276000  3
      6      5      8     11     1  0.0000000  0.6694400  3
      6      5      8     10     1  0.0000000  0.6276000  3
      6      5      8      9     1  0.0000000  0.6276000  3
      5      8     11     12     1  0.0000000  0.6694400  3
      5      8     11     13     1  0.0000000  0.6694400  3
      4      2      5      8     1  0.0000000  0.6694400  3
      4      2      5      6     1  0.0000000  0.6276000  3
      4      2      5      7     1  0.0000000  0.6276000  3
      3      2      5      8     1  0.0000000  0.6694400  3
      3      2      5      6     1  0.0000000  0.6276000  3
      3      2      5      7     1  0.0000000  0.6276000  3
      2      5      8     10     1  0.0000000  0.6694400  3
      2      5      8      9     1  0.0000000  0.6694400  3
      1      2      5      8     1  0.0000000  0.6694400  3
      1      2      5      6     1  0.0000000  0.6276000  3
      1      2      5      7     1  0.0000000  0.6276000  3
     69     68    107    109     1  0.0000000  3.3472000  1
     69     68    107    109     1  180.0000771  0.3347200  3
     69     68    107    108     1  0.0000000  3.3472000  1
     69     68    107    108     1  180.0000771  0.3347200  3
     68    107    104    106     1  0.0000000  0.6527040  3
     68    107    104    105     1  0.0000000  0.6527040  3
     67     68    107    109     1  180.0000771  0.0000000  2
     67     68    107    108     1  180.0000771  0.0000000  2
     60     58     61     62     1  0.0000000  0.6510304  3
     60     58     61     63     1  0.0000000  0.6510304  3
     60     58     61     64     1  0.0000000  0.6510304  3
     59     58     61     62     1  0.0000000  0.6510304  3
     59     58     61     63     1  0.0000000  0.6510304  3
     59     58     61     64     1  0.0000000  0.6510304  3
     57     55     58     59     1  0.0000000  0.6527040  3
     57     55     58     60     1  0.0000000  0.6527040  3
     57     55     58     61     1  0.0000000  0.6527040  3
     56     55     58     59     1  0.0000000  0.6527040  3
     56     55     58     60     1  0.0000000  0.6527040  3
     56     55     58     61     1  0.0000000  0.6527040  3
     55     58     61     62     1  0.0000000  0.6510304  3
     55     58     61     63     1  0.0000000  0.6510304  3
     55     58     61     64     1  0.0000000  0.6510304  3
     54     55     58     59     1  0.0000000  0.6527040  3
     54     55     58     60     1  0.0000000  0.6527040  3
     53     54     55     56     1  0.0000000  0.0000000  1
     53     54     55     56     1  0.0000000  0.0000000  2
     53     54     55     56     1  0.0000000  1.6024720  3
     53     54     55     56     1  0.0000000  0.0000000  4
     53     54     55     56     1  0.0000000  0.0000000  5
     53     54     55     57     1  0.0000000  0.0000000  1
     53     54     55     57     1  0.0000000  0.0000000  2
     53     54     55     57     1  0.0000000  1.6024720  3
     53     54     55     57     1  0.0000000  0.0000000  4
     53     54     55     57     1  0.0000000  0.0000000  5
     51     49     47     67     1  0.0000000  1.0460000  1
     51     49     47     67     1  0.0000000  0.0000000  3
     51     49     52     53     1  0.0000000  0.0000000  1
     51     49     52     53     1  0.0000000  0.0000000  2
     51     49     52     53     1  0.0000000  1.6024720  3
     51     49     52     53     1  0.0000000  0.0000000  4
     51     49     52     53     1  0.0000000  0.0000000  5
     50     49     47     67     1  0.0000000  1.0460000  1
     50     49     47     67     1  0.0000000  0.0000000  3
     50     49     52     53     1  0.0000000  0.0000000  1
     50     49     52     53     1  0.0000000  0.0000000  2
     50     49     52     53     1  0.0000000  1.6024720  3
     50     49     52     53     1  0.0000000  0.0000000  4
     50     49     52     53     1  0.0000000  0.0000000  5
     48     47     49     50     1  0.0000000  0.6527040  3
     48     47     49     51     1  0.0000000  0.6527040  3
     48     47     49     52     1  0.0000000  1.0460000  1
     48     47     49     52     1  0.0000000  0.0000000  3
     48     47     67     68     1  0.0000000  1.6024720  3
     46     44     47     48     1  0.0000000  0.6527040  3
     46     44     47     49     1  0.0000000  0.6527040  3
     46     44     47     67     1  0.0000000  1.0460000  1
     46     44     47     67     1  0.0000000  0.0000000  3
     45     44     47     48     1  0.0000000  0.6527040  3
     45     44     47     49     1  0.0000000  0.6527040  3
     45     44     47     67     1  0.0000000  1.0460000  1
     45     44     47     67     1  0.0000000  0.0000000  3
     44     47     49     50     1  0.0000000  0.6527040  3
     44     47     49     51     1  0.0000000  0.6527040  3
     43     44     47     48     1  0.0000000  1.0460000  1
     43     44     47     48     1  0.0000000  0.0000000  3
     41     43     44     45     1  0.0000000  1.6024720  3
     41     43     44     46     1  0.0000000  1.6024720  3
    106    104    107    109     1  0.0000000  0.6276000  3
    106    104    107    108     1  0.0000000  0.6276000  3
    105    104    107    109     1  0.0000000  0.6276000  3
    105    104    107    108     1  0.0000000  0.6276000  3
    103    101    104    107     1  0.0000000  0.6694400  3
    103    101    104    106     1  0.0000000  0.6276000  3
    103    101    104    105     1  0.0000000  0.6276000  3
    102    101    104    107     1  0.0000000  0.6694400  3
    102    101    104    106     1  0.0000000  0.6276000  3
    102    101    104    105     1  0.0000000  0.6276000  3
    101    104    107    109     1  0.0000000  0.6694400  3
    101    104    107    108     1  0.0000000  0.6694400  3
    100     98    101    104     1  0.0000000  0.6694400  3
    100     98    101    103     1  0.0000000  0.6276000  3
    100     98    101    102     1  0.0000000  0.6276000  3
     99     98    101    104     1  0.0000000  0.6694400  3
     99     98    101    103     1  0.0000000  0.6276000  3
     99     98    101    102     1  0.0000000  0.6276000  3
     98    101    104    106     1  0.0000000  0.6694400  3
     98    101    104    105     1  0.0000000  0.6694400  3
     97     95     98    101     1  0.0000000  0.6694400  3
     97     95     98     99     1  0.0000000  0.6276000  3
     97     95     98    100     1  0.0000000  0.6276000  3
     96     95     98    101     1  0.0000000  0.6694400  3
     96     95     98     99     1  0.0000000  0.6276000  3
     96     95     98    100     1  0.0000000  0.6276000  3
     95     98    101    103     1  0.0000000  0.6694400  3
     95     98    101    102     1  0.0000000  0.6694400  3
     94     92     95     98     1  0.0000000  0.6694400  3
     94     92     95     96     1  0.0000000  0.6276000  3
     94     92     95     97     1  0.0000000  0.6276000  3
     93     92     95     98     1  0.0000000  0.6694400  3
     93     92     95     96     1  0.0000000  0.6276000  3
     93     92     95     97     1  0.0000000  0.6276000  3
     92     95     98     99     1  0.0000000  0.6694400  3
     92     95     98    100     1  0.0000000  0.6694400  3
     91     89     92     95     1  0.0000000  0.6694400  3
     91     89     92     93     1  0.0000000  0.6276000  3
     91     89     92     94     1  0.0000000  0.6276000  3
     90     89     92     95     1  0.0000000  0.6694400  3
     90     89     92     93     1  0.0000000  0.6276000  3
     90     89     92     94     1  0.0000000  0.6276000  3
     89     92     95     96     1  0.0000000  0.6694400  3
     89     92     95     97     1  0.0000000  0.6694400  3
     88     86     89     92     1  0.0000000  0.6694400  3
     88     86     89     91     1  0.0000000  0.6276000  3
     88     86     89     90     1  0.0000000  0.6276000  3
     87     86     89     92     1  0.0000000  0.6694400  3
     87     86     89     91     1  0.0000000  0.6276000  3
     87     86     89     90     1  0.0000000  0.6276000  3
     86     89     92     93     1  0.0000000  0.6694400  3
     86     89     92     94     1  0.0000000  0.6694400  3
     85     83     86     89     1  0.0000000  0.6694400  3
     85     83     86     87     1  0.0000000  0.6276000  3
     85     83     86     88     1  0.0000000  0.6276000  3
     84     83     86     89     1  0.0000000  0.6694400  3
     84     83     86     87     1  0.0000000  0.6276000  3
     84     83     86     88     1  0.0000000  0.6276000  3
     83     86     89     91     1  0.0000000  0.6694400  3
     83     86     89     90     1  0.0000000  0.6694400  3
     82     80     83     86     1  0.0000000  0.6694400  3
     82     80     83     85     1  0.0000000  0.6276000  3
     82     80     83     84     1  0.0000000  0.6276000  3
     81     80     83     86     1  0.0000000  0.6694400  3
     81     80     83     85     1  0.0000000  0.6276000  3
     81     80     83     84     1  0.0000000  0.6276000  3
     80     83     86     87     1  0.0000000  0.6694400  3
     80     83     86     88     1  0.0000000  0.6694400  3
     79     77     80     83     1  0.0000000  0.6694400  3
     79     77     80     81     1  0.0000000  0.6276000  3
     79     77     80     82     1  0.0000000  0.6276000  3
     78     77     80     83     1  0.0000000  0.6694400  3
     78     77     80     81     1  0.0000000  0.6276000  3
     78     77     80     82     1  0.0000000  0.6276000  3
     77     80     83     85     1  0.0000000  0.6694400  3
     77     80     83     84     1  0.0000000  0.6694400  3
     76     74     77     80     1  0.0000000  0.6694400  3
     76     74     77     79     1  0.0000000  0.6276000  3
     76     74     77     78     1  0.0000000  0.6276000  3
     75     74     77     80     1  0.0000000  0.6694400  3
     75     74     77     79     1  0.0000000  0.6276000  3
     75     74     77     78     1  0.0000000  0.6276000  3
     74     77     80     81     1  0.0000000  0.6694400  3
     74     77     80     82     1  0.0000000  0.6694400  3
     73     71     74     77     1  0.0000000  0.6694400  3
     73     71     74     75     1  0.0000000  0.6276000  3
     73     71     74     76     1  0.0000000  0.6276000  3
     72     71     74     77     1  0.0000000  0.6694400  3
     72     71     74     75     1  0.0000000  0.6276000  3
     72     71     74     76     1  0.0000000  0.6276000  3
     71     74     77     79     1  0.0000000  0.6694400  3
     71     74     77     78     1  0.0000000  0.6694400  3
     70     71     74     77     1  0.0000000  0.6694400  3
     70     71     74     75     1  0.0000000  0.6276000  3
     70     71     74     76     1  0.0000000  0.6276000  3
