; Exact Amber Lipid21 v1.0 topology converted by ParmEd
; Explicit [pairs] preserve Lipid21-specific 1-4 scaling.

[ moleculetype ]
; Name nrexcl
DMPG 3

[ atoms ]
; nr type resnr residue atom cgnr charge mass
1 L21_hL 1 DMPG H14Z 1 0.02551100 1.008000
2 L21_cD 1 DMPG C14X 2 -0.11171200 12.010000
3 L21_hL 1 DMPG H14X 3 0.02551100 1.008000
4 L21_hL 1 DMPG H14Y 4 0.02551100 1.008000
5 L21_cD 1 DMPG C13X 5 0.01746300 12.010000
6 L21_hL 1 DMPG H13X 6 0.00753100 1.008000
7 L21_hL 1 DMPG H13Y 7 0.00753100 1.008000
8 L21_cD 1 DMPG C12X 8 -0.02809400 12.010000
9 L21_hL 1 DMPG H12X 9 0.01720800 1.008000
10 L21_hL 1 DMPG H12Y 10 0.01720800 1.008000
11 L21_cD 1 DMPG C11X 11 -0.03178700 12.010000
12 L21_hL 1 DMPG H11X 12 0.01267700 1.008000
13 L21_hL 1 DMPG H11Y 13 0.01267700 1.008000
14 L21_cD 1 DMPG C10X 14 -0.02102500 12.010000
15 L21_hL 1 DMPG H10X 15 0.01003700 1.008000
16 L21_hL 1 DMPG H10Y 16 0.01003700 1.008000
17 L21_cD 1 DMPG C9X 17 -0.01465300 12.010000
18 L21_hL 1 DMPG H9X 18 0.01017200 1.008000
19 L21_hL 1 DMPG H9Y 19 0.01017200 1.008000
20 L21_cD 1 DMPG C8X 20 -0.02645100 12.010000
21 L21_hL 1 DMPG H8X 21 0.01124100 1.008000
22 L21_hL 1 DMPG H8Y 22 0.01124100 1.008000
23 L21_cD 1 DMPG C7X 23 -0.00438600 12.010000
24 L21_hL 1 DMPG H7X 24 0.00683300 1.008000
25 L21_hL 1 DMPG H7Y 25 0.00683300 1.008000
26 L21_cD 1 DMPG C6X 26 -0.02781200 12.010000
27 L21_hL 1 DMPG H6X 27 0.01151100 1.008000
28 L21_hL 1 DMPG H6Y 28 0.01151100 1.008000
29 L21_cD 1 DMPG C5X 29 -0.01652100 12.010000
30 L21_hL 1 DMPG H5X 30 0.01057300 1.008000
31 L21_hL 1 DMPG H5Y 31 0.01057300 1.008000
32 L21_cD 1 DMPG C4X 32 -0.02695400 12.010000
33 L21_hL 1 DMPG H4X 33 0.02043100 1.008000
34 L21_hL 1 DMPG H4Y 34 0.02043100 1.008000
35 L21_cD 1 DMPG C3X 35 -0.00243500 12.010000
36 L21_hL 1 DMPG H3X 36 0.01885900 1.008000
37 L21_hL 1 DMPG H3Y 37 0.01885900 1.008000
38 L21_cD 1 DMPG C2X 38 -0.16420000 12.010000
39 L21_hL 1 DMPG H2X 39 0.05394400 1.008000
40 L21_hL 1 DMPG H2Y 40 0.05394400 1.008000
41 L21_cC 1 DMPG C11 41 0.87700600 12.010000
42 L21_oC 1 DMPG O12 42 -0.64926500 16.000000
43 L21_oS 1 DMPG O11 43 -0.58516500 16.000000
44 L21_cA 1 DMPG C1 44 0.29511900 12.010000
45 L21_hE 1 DMPG HR 45 0.03379700 1.008000
46 L21_hE 1 DMPG HS 46 0.03379700 1.008000
47 L21_cA 1 DMPG C2 47 0.35380700 12.010000
48 L21_hE 1 DMPG HX 48 0.03748800 1.008000
49 L21_cA 1 DMPG C3 49 0.04371300 12.010000
50 L21_hE 1 DMPG HA 50 0.09104100 1.008000
51 L21_hE 1 DMPG HB 51 0.09104100 1.008000
52 L21_oT 1 DMPG O31 52 -0.54609800 16.000000
53 L21_pA 1 DMPG P31 53 1.38046400 30.970000
54 L21_oT 1 DMPG O32 54 -0.53430800 16.000000
55 L21_cA 1 DMPG C31 55 -0.05670600 12.010000
56 L21_hE 1 DMPG H1A 56 0.09335400 1.008000
57 L21_hE 1 DMPG H1B 57 0.09335400 1.008000
58 L21_cA 1 DMPG C32 58 0.33681600 12.010000
59 L21_hE 1 DMPG H2A 59 0.03004200 1.008000
60 L21_oH 1 DMPG O35 60 -0.72619200 16.000000
61 L21_hO 1 DMPG HO5A 61 0.43952300 1.008000
62 L21_cA 1 DMPG C33 62 0.19359700 12.010000
63 L21_hE 1 DMPG H3A 63 0.03471500 1.008000
64 L21_hE 1 DMPG H3B 64 0.03471500 1.008000
65 L21_oP 1 DMPG O33 65 -0.87344400 16.000000
66 L21_oP 1 DMPG O34 66 -0.87344400 16.000000
67 L21_oS 1 DMPG O21 67 -0.59913100 16.000000
68 L21_cC 1 DMPG C21 68 0.88366900 12.010000
69 L21_oC 1 DMPG O22 69 -0.65576200 16.000000
70 L21_oH 1 DMPG O36 70 -0.70087100 16.000000
71 L21_hO 1 DMPG HO6A 71 0.42332800 1.008000
72 L21_hL 1 DMPG H14W 72 0.02551100 1.008000
73 L21_cD 1 DMPG C14Y 73 -0.11171200 12.010000
74 L21_hL 1 DMPG H14U 74 0.02551100 1.008000
75 L21_hL 1 DMPG H14V 75 0.02551100 1.008000
76 L21_cD 1 DMPG C13Y 76 0.01746300 12.010000
77 L21_hL 1 DMPG H13U 77 0.00753100 1.008000
78 L21_hL 1 DMPG H13V 78 0.00753100 1.008000
79 L21_cD 1 DMPG C12Y 79 -0.02809400 12.010000
80 L21_hL 1 DMPG H12U 80 0.01720800 1.008000
81 L21_hL 1 DMPG H12V 81 0.01720800 1.008000
82 L21_cD 1 DMPG C11Y 82 -0.03178700 12.010000
83 L21_hL 1 DMPG H11U 83 0.01267700 1.008000
84 L21_hL 1 DMPG H11V 84 0.01267700 1.008000
85 L21_cD 1 DMPG C10Y 85 -0.02102500 12.010000
86 L21_hL 1 DMPG H10U 86 0.01003700 1.008000
87 L21_hL 1 DMPG H10V 87 0.01003700 1.008000
88 L21_cD 1 DMPG C9Y 88 -0.01465300 12.010000
89 L21_hL 1 DMPG H9U 89 0.01017200 1.008000
90 L21_hL 1 DMPG H9V 90 0.01017200 1.008000
91 L21_cD 1 DMPG C8Y 91 -0.02645100 12.010000
92 L21_hL 1 DMPG H8U 92 0.01124100 1.008000
93 L21_hL 1 DMPG H8V 93 0.01124100 1.008000
94 L21_cD 1 DMPG C7Y 94 -0.00438600 12.010000
95 L21_hL 1 DMPG H7U 95 0.00683300 1.008000
96 L21_hL 1 DMPG H7V 96 0.00683300 1.008000
97 L21_cD 1 DMPG C6Y 97 -0.02781200 12.010000
98 L21_hL 1 DMPG H6U 98 0.01151100 1.008000
99 L21_hL 1 DMPG H6V 99 0.01151100 1.008000
100 L21_cD 1 DMPG C5Y 100 -0.01652100 12.010000
101 L21_hL 1 DMPG H5U 101 0.01057300 1.008000
102 L21_hL 1 DMPG H5V 102 0.01057300 1.008000
103 L21_cD 1 DMPG C4Y 103 -0.02695400 12.010000
104 L21_hL 1 DMPG H4U 104 0.02043100 1.008000
105 L21_hL 1 DMPG H4V 105 0.02043100 1.008000
106 L21_cD 1 DMPG C3Y 106 -0.00243500 12.010000
107 L21_hL 1 DMPG H3U 107 0.01885900 1.008000
108 L21_hL 1 DMPG H3V 108 0.01885900 1.008000
109 L21_cD 1 DMPG C2Y 109 -0.16420000 12.010000
110 L21_hL 1 DMPG H2U 110 0.05394400 1.008000
111 L21_hL 1 DMPG H2V 111 0.05394400 1.008000

[ bonds ]
;    ai     aj funct         c0         c1         c2         c3
     38     41     1   0.15080 274721.440000
     35     38     1   0.15350 253634.080000
     32     35     1   0.15350 253634.080000
     29     32     1   0.15350 253634.080000
     26     29     1   0.15350 253634.080000
     23     26     1   0.15350 253634.080000
     20     23     1   0.15350 253634.080000
     17     20     1   0.15350 253634.080000
     14     17     1   0.15350 253634.080000
     11     14     1   0.15350 253634.080000
      8     11     1   0.15350 253634.080000
      5      8     1   0.15350 253634.080000
      2      5     1   0.15350 253634.080000
     68     69     1   0.12140 542246.400000
     68    109     1   0.15080 274721.440000
     67     68     1   0.13430 344175.840000
     62     70     1   0.14260 262838.880000
     58     60     1   0.14260 262838.880000
     58     62     1   0.15350 253634.080000
     55     58     1   0.15350 253634.080000
     54     55     1   0.14390 252295.200000
     53     54     1   0.16100 192464.000000
     53     65     1   0.14800 439320.000000
     53     66     1   0.14800 439320.000000
     52     53     1   0.16100 192464.000000
     49     52     1   0.14390 252295.200000
     47     49     1   0.15350 253634.080000
     47     67     1   0.14390 252295.200000
     44     47     1   0.15350 253634.080000
     43     44     1   0.14390 252295.200000
     41     42     1   0.12140 542246.400000
     41     43     1   0.13430 344175.840000
    106    109     1   0.15350 253634.080000
    103    106     1   0.15350 253634.080000
    100    103     1   0.15350 253634.080000
     97    100     1   0.15350 253634.080000
     94     97     1   0.15350 253634.080000
     91     94     1   0.15350 253634.080000
     88     91     1   0.15350 253634.080000
     85     88     1   0.15350 253634.080000
     82     85     1   0.15350 253634.080000
     79     82     1   0.15350 253634.080000
     76     79     1   0.15350 253634.080000
     73     76     1   0.15350 253634.080000
     38     40     1   0.10920 282252.640000
     38     39     1   0.10920 282252.640000
     35     37     1   0.10920 282252.640000
     35     36     1   0.10920 282252.640000
     32     34     1   0.10920 282252.640000
     32     33     1   0.10920 282252.640000
     29     30     1   0.10920 282252.640000
     29     31     1   0.10920 282252.640000
     26     27     1   0.10920 282252.640000
     26     28     1   0.10920 282252.640000
     23     24     1   0.10920 282252.640000
     23     25     1   0.10920 282252.640000
     20     22     1   0.10920 282252.640000
     20     21     1   0.10920 282252.640000
     17     18     1   0.10920 282252.640000
     17     19     1   0.10920 282252.640000
     14     16     1   0.10920 282252.640000
     14     15     1   0.10920 282252.640000
     11     12     1   0.10920 282252.640000
     11     13     1   0.10920 282252.640000
      8     10     1   0.10920 282252.640000
      8      9     1   0.10920 282252.640000
      5      6     1   0.10920 282252.640000
      5      7     1   0.10920 282252.640000
      2      3     1   0.10920 282252.640000
      2      4     1   0.10920 282252.640000
      1      2     1   0.10920 282252.640000
     70     71     1   0.09740 309281.280000
     62     63     1   0.10930 281081.120000
     62     64     1   0.10930 281081.120000
     60     61     1   0.09740 309281.280000
     58     59     1   0.10930 281081.120000
     55     56     1   0.10930 281081.120000
     55     57     1   0.10930 281081.120000
     49     50     1   0.10930 281081.120000
     49     51     1   0.10930 281081.120000
     47     48     1   0.10930 281081.120000
     44     45     1   0.10930 281081.120000
     44     46     1   0.10930 281081.120000
    109    111     1   0.10920 282252.640000
    109    110     1   0.10920 282252.640000
    106    108     1   0.10920 282252.640000
    106    107     1   0.10920 282252.640000
    103    105     1   0.10920 282252.640000
    103    104     1   0.10920 282252.640000
    100    101     1   0.10920 282252.640000
    100    102     1   0.10920 282252.640000
     97     98     1   0.10920 282252.640000
     97     99     1   0.10920 282252.640000
     94     95     1   0.10920 282252.640000
     94     96     1   0.10920 282252.640000
     91     93     1   0.10920 282252.640000
     91     92     1   0.10920 282252.640000
     88     89     1   0.10920 282252.640000
     88     90     1   0.10920 282252.640000
     85     87     1   0.10920 282252.640000
     85     86     1   0.10920 282252.640000
     82     83     1   0.10920 282252.640000
     82     84     1   0.10920 282252.640000
     79     81     1   0.10920 282252.640000
     79     80     1   0.10920 282252.640000
     76     77     1   0.10920 282252.640000
     76     78     1   0.10920 282252.640000
     73     74     1   0.10920 282252.640000
     73     75     1   0.10920 282252.640000
     72     73     1   0.10920 282252.640000


[ pairs ]
;    ai     aj funct         c0         c1         c2         c3
     38     44     1
     35     42     1
     35     43     1
     32     41     1
     29     38     1
     26     35     1
     23     32     1
     20     29     1
     17     26     1
     14     23     1
     11     20     1
      8     17     1
      5     14     1
      2     11     1
     69    106     1
     68    103     1
     67    106     1
     60     70     1
     55     65     1
     55     66     1
     55     70     1
     54     60     1
     54     62     1
     53     58     1
     52     67     1
     52     55     1
     49     68     1
     49     54     1
     49     65     1
     49     66     1
     47     53     1
     47     69     1
     47    109     1
     44     52     1
     44     68     1
     43     49     1
     43     67     1
     42     44     1
     41     47     1
    100    109     1
     97    106     1
     94    103     1
     91    100     1
     88     97     1
     85     94     1
     82     91     1
     79     88     1
     76     85     1
     73     82     1
     40     42     1
     40     43     1
     39     42     1
     39     43     1
     37     40     1
     37     39     1
     37     41     1
     36     40     1
     36     39     1
     36     41     1
     34     38     1
     34     37     1
     34     36     1
     33     38     1
     33     37     1
     33     36     1
     32     40     1
     32     39     1
     31     35     1
     31     34     1
     31     33     1
     30     35     1
     30     34     1
     30     33     1
     29     37     1
     29     36     1
     28     32     1
     28     30     1
     28     31     1
     27     32     1
     27     30     1
     27     31     1
     26     34     1
     26     33     1
     25     29     1
     25     27     1
     25     28     1
     24     29     1
     24     27     1
     24     28     1
     23     30     1
     23     31     1
     22     26     1
     22     24     1
     22     25     1
     21     26     1
     21     24     1
     21     25     1
     20     27     1
     20     28     1
     19     23     1
     19     22     1
     19     21     1
     18     23     1
     18     22     1
     18     21     1
     17     24     1
     17     25     1
     16     20     1
     16     18     1
     16     19     1
     15     20     1
     15     18     1
     15     19     1
     14     22     1
     14     21     1
     13     17     1
     13     16     1
     13     15     1
     12     17     1
     12     16     1
     12     15     1
     11     18     1
     11     19     1
     10     14     1
     10     12     1
     10     13     1
      9     14     1
      9     12     1
      9     13     1
      8     16     1
      8     15     1
      7     11     1
      7     10     1
      7      9     1
      6     11     1
      6     10     1
      6      9     1
      5     12     1
      5     13     1
      4      8     1
      4      6     1
      4      7     1
      3      8     1
      3      6     1
      3      7     1
      2     10     1
      2      9     1
      1      8     1
      1      6     1
      1      7     1
     69    111     1
     69    110     1
     68    108     1
     68    107     1
     67    111     1
     67    110     1
     64     71     1
     63     71     1
     61     62     1
     60     63     1
     60     64     1
     59     61     1
     59     63     1
     59     64     1
     59     70     1
     58     71     1
     57     59     1
     57     60     1
     57     62     1
     56     59     1
     56     60     1
     56     62     1
     55     61     1
     55     63     1
     55     64     1
     54     59     1
     53     56     1
     53     57     1
     51     67     1
     51     53     1
     50     67     1
     50     53     1
     48     50     1
     48     51     1
     48     52     1
     48     68     1
     46     48     1
     46     49     1
     46     67     1
     45     48     1
     45     49     1
     45     67     1
     44     50     1
     44     51     1
     43     48     1
     41     45     1
     41     46     1
    108    111     1
    108    110     1
    107    111     1
    107    110     1
    105    109     1
    105    108     1
    105    107     1
    104    109     1
    104    108     1
    104    107     1
    103    111     1
    103    110     1
    102    106     1
    102    105     1
    102    104     1
    101    106     1
    101    105     1
    101    104     1
    100    108     1
    100    107     1
     99    103     1
     99    101     1
     99    102     1
     98    103     1
     98    101     1
     98    102     1
     97    105     1
     97    104     1
     96    100     1
     96     98     1
     96     99     1
     95    100     1
     95     98     1
     95     99     1
     94    101     1
     94    102     1
     93     97     1
     93     95     1
     93     96     1
     92     97     1
     92     95     1
     92     96     1
     91     98     1
     91     99     1
     90     94     1
     90     93     1
     90     92     1
     89     94     1
     89     93     1
     89     92     1
     88     95     1
     88     96     1
     87     91     1
     87     89     1
     87     90     1
     86     91     1
     86     89     1
     86     90     1
     85     93     1
     85     92     1
     84     88     1
     84     87     1
     84     86     1
     83     88     1
     83     87     1
     83     86     1
     82     89     1
     82     90     1
     81     85     1
     81     83     1
     81     84     1
     80     85     1
     80     83     1
     80     84     1
     79     87     1
     79     86     1
     78     82     1
     78     81     1
     78     80     1
     77     82     1
     77     81     1
     77     80     1
     76     83     1
     76     84     1
     75     79     1
     75     77     1
     75     78     1
     74     79     1
     74     77     1
     74     78     1
     73     81     1
     73     80     1
     72     79     1
     72     77     1
     72     78     1


[ angles ]
;    ai     aj     ak funct         c0         c1         c2         c3
     38     41     42     1   123.1100526 569.275040
     38     41     43     1   111.9600481 579.567680
     35     38     41     1   110.5300474 533.794720
     32     35     38     1   112.0500483 394.969600
     29     32     35     1   112.0500483 394.969600
     26     29     32     1   112.0500483 394.969600
     23     26     29     1   112.0500483 394.969600
     20     23     26     1   112.0500483 394.969600
     17     20     23     1   112.0500483 394.969600
     14     17     20     1   112.0500483 394.969600
     11     14     17     1   112.0500483 394.969600
      8     11     14     1   112.0500483 394.969600
      5      8     11     1   112.0500483 394.969600
      2      5      8     1   112.0500483 394.969600
     69     68    109     1   123.1100526 569.275040
     68    109    106     1   110.5300474 533.794720
     67     68     69     1   123.3300529 635.382240
     67     68    109     1   111.9600481 579.567680
     65     53     66     1   119.9000514 1171.520000
     60     58     62     1   109.4300470 566.680960
     58     62     70     1   109.4300470 566.680960
     55     58     60     1   109.4300470 566.680960
     55     58     62     1   110.6300475 528.941280
     54     53     65     1   108.2300464 836.800000
     54     53     66     1   108.2300464 836.800000
     54     55     58     1   108.4200467 567.183040
     53     54     55     1   120.5000516 836.800000
     52     53     54     1   102.6000440 753.120000
     52     53     65     1   108.2300464 836.800000
     52     53     66     1   108.2300464 836.800000
     49     47     67     1   108.4200467 567.183040
     49     52     53     1   120.5000516 836.800000
     47     49     52     1   108.4200467 567.183040
     47     67     68     1   115.1400492 532.455840
     44     47     49     1   110.6300475 528.941280
     44     47     67     1   108.4200467 567.183040
     43     44     47     1   108.4200467 567.183040
     42     41     43     1   123.3300529 635.382240
     41     43     44     1   115.1400492 532.455840
    103    106    109     1   112.0500483 394.969600
    100    103    106     1   112.0500483 394.969600
     97    100    103     1   112.0500483 394.969600
     94     97    100     1   112.0500483 394.969600
     91     94     97     1   112.0500483 394.969600
     88     91     94     1   112.0500483 394.969600
     85     88     91     1   112.0500483 394.969600
     82     85     88     1   112.0500483 394.969600
     79     82     85     1   112.0500483 394.969600
     76     79     82     1   112.0500483 394.969600
     73     76     79     1   112.0500483 394.969600
     40     38     41     1   109.6800468 394.969600
     39     38     40     1   108.3500467 329.950240
     39     38     41     1   109.6800468 394.969600
     37     35     38     1   110.0500475 388.024160
     36     35     38     1   110.0500475 388.024160
     36     35     37     1   108.3500467 329.950240
     35     38     40     1   110.0500475 388.024160
     35     38     39     1   110.0500475 388.024160
     34     32     35     1   110.0500475 388.024160
     33     32     35     1   110.0500475 388.024160
     33     32     34     1   108.3500467 329.950240
     32     35     37     1   110.0500475 388.024160
     32     35     36     1   110.0500475 388.024160
     31     29     32     1   110.0500475 388.024160
     30     29     32     1   110.0500475 388.024160
     30     29     31     1   108.3500467 329.950240
     29     32     34     1   110.0500475 388.024160
     29     32     33     1   110.0500475 388.024160
     28     26     29     1   110.0500475 388.024160
     27     26     29     1   110.0500475 388.024160
     27     26     28     1   108.3500467 329.950240
     26     29     30     1   110.0500475 388.024160
     26     29     31     1   110.0500475 388.024160
     25     23     26     1   110.0500475 388.024160
     24     23     26     1   110.0500475 388.024160
     24     23     25     1   108.3500467 329.950240
     23     26     27     1   110.0500475 388.024160
     23     26     28     1   110.0500475 388.024160
     22     20     23     1   110.0500475 388.024160
     21     20     23     1   110.0500475 388.024160
     21     20     22     1   108.3500467 329.950240
     20     23     24     1   110.0500475 388.024160
     20     23     25     1   110.0500475 388.024160
     19     17     20     1   110.0500475 388.024160
     18     17     20     1   110.0500475 388.024160
     18     17     19     1   108.3500467 329.950240
     17     20     22     1   110.0500475 388.024160
     17     20     21     1   110.0500475 388.024160
     16     14     17     1   110.0500475 388.024160
     15     14     17     1   110.0500475 388.024160
     15     14     16     1   108.3500467 329.950240
     14     17     18     1   110.0500475 388.024160
     14     17     19     1   110.0500475 388.024160
     13     11     14     1   110.0500475 388.024160
     12     11     14     1   110.0500475 388.024160
     12     11     13     1   108.3500467 329.950240
     11     14     16     1   110.0500475 388.024160
     11     14     15     1   110.0500475 388.024160
     10      8     11     1   110.0500475 388.024160
      9      8     11     1   110.0500475 388.024160
      9      8     10     1   108.3500467 329.950240
      8     11     12     1   110.0500475 388.024160
      8     11     13     1   110.0500475 388.024160
      7      5      8     1   110.0500475 388.024160
      6      5      8     1   110.0500475 388.024160
      6      5      7     1   108.3500467 329.950240
      5      8     10     1   110.0500475 388.024160
      5      8      9     1   110.0500475 388.024160
      4      2      5     1   110.0500475 388.024160
      3      2      5     1   110.0500475 388.024160
      3      2      4     1   108.3500467 329.950240
      2      5      6     1   110.0500475 388.024160
      2      5      7     1   110.0500475 388.024160
      1      2      5     1   110.0500475 388.024160
      1      2      3     1   108.3500467 329.950240
      1      2      4     1   108.3500467 329.950240
     68    109    111     1   109.6800468 394.969600
     68    109    110     1   109.6800468 394.969600
     64     62     70     1   109.8800469 426.516960
     63     62     64     1   109.5500472 327.858240
     63     62     70     1   109.8800469 426.516960
     62     70     71     1   108.1600465 394.049120
     59     58     60     1   109.8800469 426.516960
     59     58     62     1   110.0700471 387.940480
     58     60     61     1   108.1600465 394.049120
     58     62     63     1   110.0700471 387.940480
     58     62     64     1   110.0700471 387.940480
     57     55     58     1   110.0700471 387.940480
     56     55     57     1   109.5500472 327.858240
     56     55     58     1   110.0700471 387.940480
     55     58     59     1   110.0700471 387.940480
     54     55     56     1   108.8200469 425.429120
     54     55     57     1   108.8200469 425.429120
     51     49     52     1   108.8200469 425.429120
     50     49     51     1   109.5500472 327.858240
     50     49     52     1   108.8200469 425.429120
     48     47     49     1   110.0700471 387.940480
     48     47     67     1   108.8200469 425.429120
     47     49     50     1   110.0700471 387.940480
     47     49     51     1   110.0700471 387.940480
     46     44     47     1   110.0700471 387.940480
     45     44     46     1   109.5500472 327.858240
     45     44     47     1   110.0700471 387.940480
     44     47     48     1   110.0700471 387.940480
     43     44     45     1   108.8200469 425.429120
     43     44     46     1   108.8200469 425.429120
    110    109    111     1   108.3500467 329.950240
    108    106    109     1   110.0500475 388.024160
    107    106    109     1   110.0500475 388.024160
    107    106    108     1   108.3500467 329.950240
    106    109    111     1   110.0500475 388.024160
    106    109    110     1   110.0500475 388.024160
    105    103    106     1   110.0500475 388.024160
    104    103    106     1   110.0500475 388.024160
    104    103    105     1   108.3500467 329.950240
    103    106    108     1   110.0500475 388.024160
    103    106    107     1   110.0500475 388.024160
    102    100    103     1   110.0500475 388.024160
    101    100    103     1   110.0500475 388.024160
    101    100    102     1   108.3500467 329.950240
    100    103    105     1   110.0500475 388.024160
    100    103    104     1   110.0500475 388.024160
     99     97    100     1   110.0500475 388.024160
     98     97    100     1   110.0500475 388.024160
     98     97     99     1   108.3500467 329.950240
     97    100    101     1   110.0500475 388.024160
     97    100    102     1   110.0500475 388.024160
     96     94     97     1   110.0500475 388.024160
     95     94     97     1   110.0500475 388.024160
     95     94     96     1   108.3500467 329.950240
     94     97     98     1   110.0500475 388.024160
     94     97     99     1   110.0500475 388.024160
     93     91     94     1   110.0500475 388.024160
     92     91     94     1   110.0500475 388.024160
     92     91     93     1   108.3500467 329.950240
     91     94     95     1   110.0500475 388.024160
     91     94     96     1   110.0500475 388.024160
     90     88     91     1   110.0500475 388.024160
     89     88     91     1   110.0500475 388.024160
     89     88     90     1   108.3500467 329.950240
     88     91     93     1   110.0500475 388.024160
     88     91     92     1   110.0500475 388.024160
     87     85     88     1   110.0500475 388.024160
     86     85     88     1   110.0500475 388.024160
     86     85     87     1   108.3500467 329.950240
     85     88     89     1   110.0500475 388.024160
     85     88     90     1   110.0500475 388.024160
     84     82     85     1   110.0500475 388.024160
     83     82     85     1   110.0500475 388.024160
     83     82     84     1   108.3500467 329.950240
     82     85     87     1   110.0500475 388.024160
     82     85     86     1   110.0500475 388.024160
     81     79     82     1   110.0500475 388.024160
     80     79     82     1   110.0500475 388.024160
     80     79     81     1   108.3500467 329.950240
     79     82     83     1   110.0500475 388.024160
     79     82     84     1   110.0500475 388.024160
     78     76     79     1   110.0500475 388.024160
     77     76     79     1   110.0500475 388.024160
     77     76     78     1   108.3500467 329.950240
     76     79     81     1   110.0500475 388.024160
     76     79     80     1   110.0500475 388.024160
     75     73     76     1   110.0500475 388.024160
     74     73     76     1   110.0500475 388.024160
     74     73     75     1   108.3500467 329.950240
     73     76     77     1   110.0500475 388.024160
     73     76     78     1   110.0500475 388.024160
     72     73     76     1   110.0500475 388.024160
     72     73     74     1   108.3500467 329.950240
     72     73     75     1   108.3500467 329.950240


[ dihedrals ]
;    ai     aj     ak     al funct         c0         c1         c2         c3         c4         c5
     38     41     43     44     1  180.0000771  11.2968000  2
     35     38     41     42     1  180.0000771  0.0000000  2
     35     38     41     43     1  180.0000771  0.0000000  2
     32     35     38     41     1  0.0000000  0.6527040  3
     29     32     35     38     1  0.0000000  0.4184000  1
     29     32     35     38     1  0.0000000  0.4184000  2
     29     32     35     38     1  0.0000000  1.2552000  3
     29     32     35     38     1  0.0000000  0.4184000  4
     29     32     35     38     1  0.0000000  0.4184000  5
     26     29     32     35     1  0.0000000  0.4184000  1
     26     29     32     35     1  0.0000000  0.4184000  2
     26     29     32     35     1  0.0000000  1.2552000  3
     26     29     32     35     1  0.0000000  0.4184000  4
     26     29     32     35     1  0.0000000  0.4184000  5
     23     26     29     32     1  0.0000000  0.4184000  1
     23     26     29     32     1  0.0000000  0.4184000  2
     23     26     29     32     1  0.0000000  1.2552000  3
     23     26     29     32     1  0.0000000  0.4184000  4
     23     26     29     32     1  0.0000000  0.4184000  5
     20     23     26     29     1  0.0000000  0.4184000  1
     20     23     26     29     1  0.0000000  0.4184000  2
     20     23     26     29     1  0.0000000  1.2552000  3
     20     23     26     29     1  0.0000000  0.4184000  4
     20     23     26     29     1  0.0000000  0.4184000  5
     17     20     23     26     1  0.0000000  0.4184000  1
     17     20     23     26     1  0.0000000  0.4184000  2
     17     20     23     26     1  0.0000000  1.2552000  3
     17     20     23     26     1  0.0000000  0.4184000  4
     17     20     23     26     1  0.0000000  0.4184000  5
     14     17     20     23     1  0.0000000  0.4184000  1
     14     17     20     23     1  0.0000000  0.4184000  2
     14     17     20     23     1  0.0000000  1.2552000  3
     14     17     20     23     1  0.0000000  0.4184000  4
     14     17     20     23     1  0.0000000  0.4184000  5
     11     14     17     20     1  0.0000000  0.4184000  1
     11     14     17     20     1  0.0000000  0.4184000  2
     11     14     17     20     1  0.0000000  1.2552000  3
     11     14     17     20     1  0.0000000  0.4184000  4
     11     14     17     20     1  0.0000000  0.4184000  5
      8     11     14     17     1  0.0000000  0.4184000  1
      8     11     14     17     1  0.0000000  0.4184000  2
      8     11     14     17     1  0.0000000  1.2552000  3
      8     11     14     17     1  0.0000000  0.4184000  4
      8     11     14     17     1  0.0000000  0.4184000  5
      5      8     11     14     1  0.0000000  0.4184000  1
      5      8     11     14     1  0.0000000  0.4184000  2
      5      8     11     14     1  0.0000000  1.2552000  3
      5      8     11     14     1  0.0000000  0.4184000  4
      5      8     11     14     1  0.0000000  0.4184000  5
      2      5      8     11     1  0.0000000  0.4184000  1
      2      5      8     11     1  0.0000000  0.4184000  2
      2      5      8     11     1  0.0000000  1.2552000  3
      2      5      8     11     1  0.0000000  0.4184000  4
      2      5      8     11     1  0.0000000  0.4184000  5
     69     68    109    106     1  180.0000771  0.0000000  2
     68    109    106    103     1  0.0000000  0.6527040  3
     67     68    109    106     1  180.0000771  0.0000000  2
     60     58     62     70     1  0.0000000  4.9162000  2
     60     58     62     70     1  0.0000000  0.6024960  3
     55     54     53     65     1  0.0000000  0.0000000  1
     55     54     53     65     1  0.0000000  0.8368000  2
     55     54     53     65     1  0.0000000  0.0000000  3
     55     54     53     65     1  0.0000000  0.0000000  4
     55     54     53     65     1  0.0000000  0.0000000  5
     55     54     53     66     1  0.0000000  0.0000000  1
     55     54     53     66     1  0.0000000  0.8368000  2
     55     54     53     66     1  0.0000000  0.0000000  3
     55     54     53     66     1  0.0000000  0.0000000  4
     55     54     53     66     1  0.0000000  0.0000000  5
     55     58     62     70     1  0.0000000  0.6510304  3
     54     55     58     60     1  0.0000000  4.9162000  2
     54     55     58     60     1  0.0000000  0.6024960  3
     54     55     58     62     1  180.0000771  3.3472000  1
     54     55     58     62     1  120.0000514  0.8368000  2
     54     55     58     62     1  60.0000257  1.6736000  3
     53     54     55     58     1  180.0000771  -3.3472000  2
     53     54     55     58     1  0.0000000  0.0000000  3
     52     49     47     67     1  0.0000000  0.0000000  1
     52     49     47     67     1  0.0000000  0.0000000  2
     52     49     47     67     1  0.0000000  0.0000000  3
     52     49     47     67     1  0.0000000  0.0000000  4
     52     49     47     67     1  0.0000000  0.0000000  5
     52     53     54     55     1  0.0000000  9.6232000  2
     52     53     54     55     1  0.0000000  2.5104000  3
     49     47     67     68     1  0.0000000  -0.4184000  1
     49     47     67     68     1  240.0001029  -1.2552000  2
     49     47     67     68     1  300.0001286  -0.8368000  3
     49     52     53     54     1  0.0000000  9.6232000  2
     49     52     53     54     1  0.0000000  2.5104000  3
     49     52     53     65     1  0.0000000  0.0000000  1
     49     52     53     65     1  0.0000000  0.8368000  2
     49     52     53     65     1  0.0000000  0.0000000  3
     49     52     53     65     1  0.0000000  0.0000000  4
     49     52     53     65     1  0.0000000  0.0000000  5
     49     52     53     66     1  0.0000000  0.0000000  1
     49     52     53     66     1  0.0000000  0.8368000  2
     49     52     53     66     1  0.0000000  0.0000000  3
     49     52     53     66     1  0.0000000  0.0000000  4
     49     52     53     66     1  0.0000000  0.0000000  5
     47     49     52     53     1  180.0000771  -3.3472000  2
     47     49     52     53     1  0.0000000  0.0000000  3
     47     67     68     69     1  180.0000771  5.8576000  1
     47     67     68     69     1  180.0000771  11.2968000  2
     47     67     68    109     1  180.0000771  11.2968000  2
     44     47     49     52     1  180.0000771  3.3472000  1
     44     47     49     52     1  120.0000514  0.8368000  2
     44     47     49     52     1  60.0000257  1.6736000  3
     44     47     67     68     1  0.0000000  -0.4184000  1
     44     47     67     68     1  240.0001029  -1.2552000  2
     44     47     67     68     1  300.0001286  -0.8368000  3
     43     44     47     49     1  0.0000000  0.0000000  1
     43     44     47     49     1  0.0000000  0.0000000  2
     43     44     47     49     1  0.0000000  0.0000000  3
     43     44     47     49     1  0.0000000  0.0000000  4
     43     44     47     49     1  0.0000000  0.0000000  5
     43     44     47     67     1  180.0000771  -0.4184000  1
     43     44     47     67     1  0.0000000  1.2552000  2
     43     44     47     67     1  0.0000000  4.1840000  3
     42     41     43     44     1  180.0000771  5.8576000  1
     42     41     43     44     1  180.0000771  11.2968000  2
     41     43     44     47     1  0.0000000  -0.4184000  1
     41     43     44     47     1  240.0001029  -1.2552000  2
     41     43     44     47     1  300.0001286  -0.8368000  3
    100    103    106    109     1  0.0000000  0.4184000  1
    100    103    106    109     1  0.0000000  0.4184000  2
    100    103    106    109     1  0.0000000  1.2552000  3
    100    103    106    109     1  0.0000000  0.4184000  4
    100    103    106    109     1  0.0000000  0.4184000  5
     97    100    103    106     1  0.0000000  0.4184000  1
     97    100    103    106     1  0.0000000  0.4184000  2
     97    100    103    106     1  0.0000000  1.2552000  3
     97    100    103    106     1  0.0000000  0.4184000  4
     97    100    103    106     1  0.0000000  0.4184000  5
     94     97    100    103     1  0.0000000  0.4184000  1
     94     97    100    103     1  0.0000000  0.4184000  2
     94     97    100    103     1  0.0000000  1.2552000  3
     94     97    100    103     1  0.0000000  0.4184000  4
     94     97    100    103     1  0.0000000  0.4184000  5
     91     94     97    100     1  0.0000000  0.4184000  1
     91     94     97    100     1  0.0000000  0.4184000  2
     91     94     97    100     1  0.0000000  1.2552000  3
     91     94     97    100     1  0.0000000  0.4184000  4
     91     94     97    100     1  0.0000000  0.4184000  5
     88     91     94     97     1  0.0000000  0.4184000  1
     88     91     94     97     1  0.0000000  0.4184000  2
     88     91     94     97     1  0.0000000  1.2552000  3
     88     91     94     97     1  0.0000000  0.4184000  4
     88     91     94     97     1  0.0000000  0.4184000  5
     85     88     91     94     1  0.0000000  0.4184000  1
     85     88     91     94     1  0.0000000  0.4184000  2
     85     88     91     94     1  0.0000000  1.2552000  3
     85     88     91     94     1  0.0000000  0.4184000  4
     85     88     91     94     1  0.0000000  0.4184000  5
     82     85     88     91     1  0.0000000  0.4184000  1
     82     85     88     91     1  0.0000000  0.4184000  2
     82     85     88     91     1  0.0000000  1.2552000  3
     82     85     88     91     1  0.0000000  0.4184000  4
     82     85     88     91     1  0.0000000  0.4184000  5
     79     82     85     88     1  0.0000000  0.4184000  1
     79     82     85     88     1  0.0000000  0.4184000  2
     79     82     85     88     1  0.0000000  1.2552000  3
     79     82     85     88     1  0.0000000  0.4184000  4
     79     82     85     88     1  0.0000000  0.4184000  5
     76     79     82     85     1  0.0000000  0.4184000  1
     76     79     82     85     1  0.0000000  0.4184000  2
     76     79     82     85     1  0.0000000  1.2552000  3
     76     79     82     85     1  0.0000000  0.4184000  4
     76     79     82     85     1  0.0000000  0.4184000  5
     73     76     79     82     1  0.0000000  0.4184000  1
     73     76     79     82     1  0.0000000  0.4184000  2
     73     76     79     82     1  0.0000000  1.2552000  3
     73     76     79     82     1  0.0000000  0.4184000  4
     73     76     79     82     1  0.0000000  0.4184000  5
    109     69     68     67     4  180.0000771  43.9320000  2
     38     42     41     43     4  180.0000771  43.9320000  2
     40     38     41     42     1  0.0000000  3.3472000  1
     40     38     41     42     1  180.0000771  0.3347200  3
     40     38     41     43     1  180.0000771  0.0000000  2
     39     38     41     42     1  0.0000000  3.3472000  1
     39     38     41     42     1  180.0000771  0.3347200  3
     39     38     41     43     1  180.0000771  0.0000000  2
     37     35     38     40     1  0.0000000  0.6276000  3
     37     35     38     39     1  0.0000000  0.6276000  3
     37     35     38     41     1  0.0000000  0.6527040  3
     36     35     38     40     1  0.0000000  0.6276000  3
     36     35     38     39     1  0.0000000  0.6276000  3
     36     35     38     41     1  0.0000000  0.6527040  3
     34     32     35     38     1  0.0000000  0.6694400  3
     34     32     35     37     1  0.0000000  0.6276000  3
     34     32     35     36     1  0.0000000  0.6276000  3
     33     32     35     38     1  0.0000000  0.6694400  3
     33     32     35     37     1  0.0000000  0.6276000  3
     33     32     35     36     1  0.0000000  0.6276000  3
     32     35     38     40     1  0.0000000  0.6694400  3
     32     35     38     39     1  0.0000000  0.6694400  3
     31     29     32     35     1  0.0000000  0.6694400  3
     31     29     32     34     1  0.0000000  0.6276000  3
     31     29     32     33     1  0.0000000  0.6276000  3
     30     29     32     35     1  0.0000000  0.6694400  3
     30     29     32     34     1  0.0000000  0.6276000  3
     30     29     32     33     1  0.0000000  0.6276000  3
     29     32     35     37     1  0.0000000  0.6694400  3
     29     32     35     36     1  0.0000000  0.6694400  3
     28     26     29     32     1  0.0000000  0.6694400  3
     28     26     29     30     1  0.0000000  0.6276000  3
     28     26     29     31     1  0.0000000  0.6276000  3
     27     26     29     32     1  0.0000000  0.6694400  3
     27     26     29     30     1  0.0000000  0.6276000  3
     27     26     29     31     1  0.0000000  0.6276000  3
     26     29     32     34     1  0.0000000  0.6694400  3
     26     29     32     33     1  0.0000000  0.6694400  3
     25     23     26     29     1  0.0000000  0.6694400  3
     25     23     26     27     1  0.0000000  0.6276000  3
     25     23     26     28     1  0.0000000  0.6276000  3
     24     23     26     29     1  0.0000000  0.6694400  3
     24     23     26     27     1  0.0000000  0.6276000  3
     24     23     26     28     1  0.0000000  0.6276000  3
     23     26     29     30     1  0.0000000  0.6694400  3
     23     26     29     31     1  0.0000000  0.6694400  3
     22     20     23     26     1  0.0000000  0.6694400  3
     22     20     23     24     1  0.0000000  0.6276000  3
     22     20     23     25     1  0.0000000  0.6276000  3
     21     20     23     26     1  0.0000000  0.6694400  3
     21     20     23     24     1  0.0000000  0.6276000  3
     21     20     23     25     1  0.0000000  0.6276000  3
     20     23     26     27     1  0.0000000  0.6694400  3
     20     23     26     28     1  0.0000000  0.6694400  3
     19     17     20     23     1  0.0000000  0.6694400  3
     19     17     20     22     1  0.0000000  0.6276000  3
     19     17     20     21     1  0.0000000  0.6276000  3
     18     17     20     23     1  0.0000000  0.6694400  3
     18     17     20     22     1  0.0000000  0.6276000  3
     18     17     20     21     1  0.0000000  0.6276000  3
     17     20     23     24     1  0.0000000  0.6694400  3
     17     20     23     25     1  0.0000000  0.6694400  3
     16     14     17     20     1  0.0000000  0.6694400  3
     16     14     17     18     1  0.0000000  0.6276000  3
     16     14     17     19     1  0.0000000  0.6276000  3
     15     14     17     20     1  0.0000000  0.6694400  3
     15     14     17     18     1  0.0000000  0.6276000  3
     15     14     17     19     1  0.0000000  0.6276000  3
     14     17     20     22     1  0.0000000  0.6694400  3
     14     17     20     21     1  0.0000000  0.6694400  3
     13     11     14     17     1  0.0000000  0.6694400  3
     13     11     14     16     1  0.0000000  0.6276000  3
     13     11     14     15     1  0.0000000  0.6276000  3
     12     11     14     17     1  0.0000000  0.6694400  3
     12     11     14     16     1  0.0000000  0.6276000  3
     12     11     14     15     1  0.0000000  0.6276000  3
     11     14     17     18     1  0.0000000  0.6694400  3
     11     14     17     19     1  0.0000000  0.6694400  3
     10      8     11     14     1  0.0000000  0.6694400  3
     10      8     11     12     1  0.0000000  0.6276000  3
     10      8     11     13     1  0.0000000  0.6276000  3
      9      8     11     14     1  0.0000000  0.6694400  3
      9      8     11     12     1  0.0000000  0.6276000  3
      9      8     11     13     1  0.0000000  0.6276000  3
      8     11     14     16     1  0.0000000  0.6694400  3
      8     11     14     15     1  0.0000000  0.6694400  3
      7      5      8     11     1  0.0000000  0.6694400  3
      7      5      8     10     1  0.0000000  0.6276000  3
      7      5      8      9     1  0.0000000  0.6276000  3
      6      5      8     11     1  0.0000000  0.6694400  3
      6      5      8     10     1  0.0000000  0.6276000  3
      6      5      8      9     1  0.0000000  0.6276000  3
      5      8     11     12     1  0.0000000  0.6694400  3
      5      8     11     13     1  0.0000000  0.6694400  3
      4      2      5      8     1  0.0000000  0.6694400  3
      4      2      5      6     1  0.0000000  0.6276000  3
      4      2      5      7     1  0.0000000  0.6276000  3
      3      2      5      8     1  0.0000000  0.6694400  3
      3      2      5      6     1  0.0000000  0.6276000  3
      3      2      5      7     1  0.0000000  0.6276000  3
      2      5      8     10     1  0.0000000  0.6694400  3
      2      5      8      9     1  0.0000000  0.6694400  3
      1      2      5      8     1  0.0000000  0.6694400  3
      1      2      5      6     1  0.0000000  0.6276000  3
      1      2      5      7     1  0.0000000  0.6276000  3
     69     68    109    111     1  0.0000000  3.3472000  1
     69     68    109    111     1  180.0000771  0.3347200  3
     69     68    109    110     1  0.0000000  3.3472000  1
     69     68    109    110     1  180.0000771  0.3347200  3
     68    109    106    108     1  0.0000000  0.6527040  3
     68    109    106    107     1  0.0000000  0.6527040  3
     67     68    109    111     1  180.0000771  0.0000000  2
     67     68    109    110     1  180.0000771  0.0000000  2
     64     62     70     71     1  0.0000000  2.0920000  3
     63     62     70     71     1  0.0000000  2.0920000  3
     61     60     58     62     1  0.0000000  1.0460000  1
     61     60     58     62     1  0.0000000  0.6694400  3
     60     58     62     63     1  0.0000000  1.0460000  1
     60     58     62     63     1  0.0000000  0.0000000  3
     60     58     62     64     1  0.0000000  1.0460000  1
     60     58     62     64     1  0.0000000  0.0000000  3
     59     58     60     61     1  0.0000000  2.0920000  3
     59     58     62     63     1  0.0000000  0.6527040  3
     59     58     62     64     1  0.0000000  0.6527040  3
     59     58     62     70     1  0.0000000  1.0460000  1
     59     58     62     70     1  0.0000000  0.0000000  3
     58     62     70     71     1  0.0000000  1.0460000  1
     58     62     70     71     1  0.0000000  0.6694400  3
     57     55     58     59     1  0.0000000  0.6527040  3
     57     55     58     60     1  0.0000000  1.0460000  1
     57     55     58     60     1  0.0000000  0.0000000  3
     57     55     58     62     1  0.0000000  0.6527040  3
     56     55     58     59     1  0.0000000  0.6527040  3
     56     55     58     60     1  0.0000000  1.0460000  1
     56     55     58     60     1  0.0000000  0.0000000  3
     56     55     58     62     1  0.0000000  0.6527040  3
     55     58     60     61     1  0.0000000  1.0460000  1
     55     58     60     61     1  0.0000000  0.6694400  3
     55     58     62     63     1  0.0000000  0.6527040  3
     55     58     62     64     1  0.0000000  0.6527040  3
     54     55     58     59     1  0.0000000  1.0460000  1
     54     55     58     59     1  0.0000000  0.0000000  3
     53     54     55     56     1  0.0000000  0.0000000  1
     53     54     55     56     1  0.0000000  0.0000000  2
     53     54     55     56     1  0.0000000  1.6024720  3
     53     54     55     56     1  0.0000000  0.0000000  4
     53     54     55     56     1  0.0000000  0.0000000  5
     53     54     55     57     1  0.0000000  0.0000000  1
     53     54     55     57     1  0.0000000  0.0000000  2
     53     54     55     57     1  0.0000000  1.6024720  3
     53     54     55     57     1  0.0000000  0.0000000  4
     53     54     55     57     1  0.0000000  0.0000000  5
     51     49     47     67     1  0.0000000  1.0460000  1
     51     49     47     67     1  0.0000000  0.0000000  3
     51     49     52     53     1  0.0000000  0.0000000  1
     51     49     52     53     1  0.0000000  0.0000000  2
     51     49     52     53     1  0.0000000  1.6024720  3
     51     49     52     53     1  0.0000000  0.0000000  4
     51     49     52     53     1  0.0000000  0.0000000  5
     50     49     47     67     1  0.0000000  1.0460000  1
     50     49     47     67     1  0.0000000  0.0000000  3
     50     49     52     53     1  0.0000000  0.0000000  1
     50     49     52     53     1  0.0000000  0.0000000  2
     50     49     52     53     1  0.0000000  1.6024720  3
     50     49     52     53     1  0.0000000  0.0000000  4
     50     49     52     53     1  0.0000000  0.0000000  5
     48     47     49     50     1  0.0000000  0.6527040  3
     48     47     49     51     1  0.0000000  0.6527040  3
     48     47     49     52     1  0.0000000  1.0460000  1
     48     47     49     52     1  0.0000000  0.0000000  3
     48     47     67     68     1  0.0000000  1.6024720  3
     46     44     47     48     1  0.0000000  0.6527040  3
     46     44     47     49     1  0.0000000  0.6527040  3
     46     44     47     67     1  0.0000000  1.0460000  1
     46     44     47     67     1  0.0000000  0.0000000  3
     45     44     47     48     1  0.0000000  0.6527040  3
     45     44     47     49     1  0.0000000  0.6527040  3
     45     44     47     67     1  0.0000000  1.0460000  1
     45     44     47     67     1  0.0000000  0.0000000  3
     44     47     49     50     1  0.0000000  0.6527040  3
     44     47     49     51     1  0.0000000  0.6527040  3
     43     44     47     48     1  0.0000000  1.0460000  1
     43     44     47     48     1  0.0000000  0.0000000  3
     41     43     44     45     1  0.0000000  1.6024720  3
     41     43     44     46     1  0.0000000  1.6024720  3
    108    106    109    111     1  0.0000000  0.6276000  3
    108    106    109    110     1  0.0000000  0.6276000  3
    107    106    109    111     1  0.0000000  0.6276000  3
    107    106    109    110     1  0.0000000  0.6276000  3
    105    103    106    109     1  0.0000000  0.6694400  3
    105    103    106    108     1  0.0000000  0.6276000  3
    105    103    106    107     1  0.0000000  0.6276000  3
    104    103    106    109     1  0.0000000  0.6694400  3
    104    103    106    108     1  0.0000000  0.6276000  3
    104    103    106    107     1  0.0000000  0.6276000  3
    103    106    109    111     1  0.0000000  0.6694400  3
    103    106    109    110     1  0.0000000  0.6694400  3
    102    100    103    106     1  0.0000000  0.6694400  3
    102    100    103    105     1  0.0000000  0.6276000  3
    102    100    103    104     1  0.0000000  0.6276000  3
    101    100    103    106     1  0.0000000  0.6694400  3
    101    100    103    105     1  0.0000000  0.6276000  3
    101    100    103    104     1  0.0000000  0.6276000  3
    100    103    106    108     1  0.0000000  0.6694400  3
    100    103    106    107     1  0.0000000  0.6694400  3
     99     97    100    103     1  0.0000000  0.6694400  3
     99     97    100    101     1  0.0000000  0.6276000  3
     99     97    100    102     1  0.0000000  0.6276000  3
     98     97    100    103     1  0.0000000  0.6694400  3
     98     97    100    101     1  0.0000000  0.6276000  3
     98     97    100    102     1  0.0000000  0.6276000  3
     97    100    103    105     1  0.0000000  0.6694400  3
     97    100    103    104     1  0.0000000  0.6694400  3
     96     94     97    100     1  0.0000000  0.6694400  3
     96     94     97     98     1  0.0000000  0.6276000  3
     96     94     97     99     1  0.0000000  0.6276000  3
     95     94     97    100     1  0.0000000  0.6694400  3
     95     94     97     98     1  0.0000000  0.6276000  3
     95     94     97     99     1  0.0000000  0.6276000  3
     94     97    100    101     1  0.0000000  0.6694400  3
     94     97    100    102     1  0.0000000  0.6694400  3
     93     91     94     97     1  0.0000000  0.6694400  3
     93     91     94     95     1  0.0000000  0.6276000  3
     93     91     94     96     1  0.0000000  0.6276000  3
     92     91     94     97     1  0.0000000  0.6694400  3
     92     91     94     95     1  0.0000000  0.6276000  3
     92     91     94     96     1  0.0000000  0.6276000  3
     91     94     97     98     1  0.0000000  0.6694400  3
     91     94     97     99     1  0.0000000  0.6694400  3
     90     88     91     94     1  0.0000000  0.6694400  3
     90     88     91     93     1  0.0000000  0.6276000  3
     90     88     91     92     1  0.0000000  0.6276000  3
     89     88     91     94     1  0.0000000  0.6694400  3
     89     88     91     93     1  0.0000000  0.6276000  3
     89     88     91     92     1  0.0000000  0.6276000  3
     88     91     94     95     1  0.0000000  0.6694400  3
     88     91     94     96     1  0.0000000  0.6694400  3
     87     85     88     91     1  0.0000000  0.6694400  3
     87     85     88     89     1  0.0000000  0.6276000  3
     87     85     88     90     1  0.0000000  0.6276000  3
     86     85     88     91     1  0.0000000  0.6694400  3
     86     85     88     89     1  0.0000000  0.6276000  3
     86     85     88     90     1  0.0000000  0.6276000  3
     85     88     91     93     1  0.0000000  0.6694400  3
     85     88     91     92     1  0.0000000  0.6694400  3
     84     82     85     88     1  0.0000000  0.6694400  3
     84     82     85     87     1  0.0000000  0.6276000  3
     84     82     85     86     1  0.0000000  0.6276000  3
     83     82     85     88     1  0.0000000  0.6694400  3
     83     82     85     87     1  0.0000000  0.6276000  3
     83     82     85     86     1  0.0000000  0.6276000  3
     82     85     88     89     1  0.0000000  0.6694400  3
     82     85     88     90     1  0.0000000  0.6694400  3
     81     79     82     85     1  0.0000000  0.6694400  3
     81     79     82     83     1  0.0000000  0.6276000  3
     81     79     82     84     1  0.0000000  0.6276000  3
     80     79     82     85     1  0.0000000  0.6694400  3
     80     79     82     83     1  0.0000000  0.6276000  3
     80     79     82     84     1  0.0000000  0.6276000  3
     79     82     85     87     1  0.0000000  0.6694400  3
     79     82     85     86     1  0.0000000  0.6694400  3
     78     76     79     82     1  0.0000000  0.6694400  3
     78     76     79     81     1  0.0000000  0.6276000  3
     78     76     79     80     1  0.0000000  0.6276000  3
     77     76     79     82     1  0.0000000  0.6694400  3
     77     76     79     81     1  0.0000000  0.6276000  3
     77     76     79     80     1  0.0000000  0.6276000  3
     76     79     82     83     1  0.0000000  0.6694400  3
     76     79     82     84     1  0.0000000  0.6694400  3
     75     73     76     79     1  0.0000000  0.6694400  3
     75     73     76     77     1  0.0000000  0.6276000  3
     75     73     76     78     1  0.0000000  0.6276000  3
     74     73     76     79     1  0.0000000  0.6694400  3
     74     73     76     77     1  0.0000000  0.6276000  3
     74     73     76     78     1  0.0000000  0.6276000  3
     73     76     79     81     1  0.0000000  0.6694400  3
     73     76     79     80     1  0.0000000  0.6694400  3
     72     73     76     79     1  0.0000000  0.6694400  3
     72     73     76     77     1  0.0000000  0.6276000  3
     72     73     76     78     1  0.0000000  0.6276000  3
