; Exact Amber Lipid21 v1.0 topology converted by ParmEd
; Explicit [pairs] preserve Lipid21-specific 1-4 scaling.
; Conversion contract: amber-explicit-pairs-v2 (independent of parent defaults).

[ moleculetype ]
; Name nrexcl
DOPA 3

[ atoms ]
; nr type resnr residue atom cgnr charge mass
1 L21_cD 1 DOPA C2X 1 -0.14341800 12.010000
2 L21_hL 1 DOPA H2X 2 0.04286100 1.008000
3 L21_hL 1 DOPA H2Y 3 0.04286100 1.008000
4 L21_cD 1 DOPA C3X 4 0.00161900 12.010000
5 L21_hL 1 DOPA H3X 5 0.01952900 1.008000
6 L21_hL 1 DOPA H3Y 6 0.01952900 1.008000
7 L21_cD 1 DOPA C4X 7 -0.02296000 12.010000
8 L21_hL 1 DOPA H4X 8 0.01813400 1.008000
9 L21_hL 1 DOPA H4Y 9 0.01813400 1.008000
10 L21_cD 1 DOPA C5X 10 -0.01669200 12.010000
11 L21_hL 1 DOPA H5X 11 0.00869000 1.008000
12 L21_hL 1 DOPA H5Y 12 0.00869000 1.008000
13 L21_cD 1 DOPA C6X 13 -0.02378900 12.010000
14 L21_hL 1 DOPA H6X 14 0.00926600 1.008000
15 L21_hL 1 DOPA H6Y 15 0.00926600 1.008000
16 L21_cD 1 DOPA C7X 16 -0.01749500 12.010000
17 L21_hL 1 DOPA H7X 17 0.01959800 1.008000
18 L21_hL 1 DOPA H7Y 18 0.01959800 1.008000
19 L21_cD 1 DOPA C8X 19 0.03177500 12.010000
20 L21_hL 1 DOPA H8X 20 0.03268500 1.008000
21 L21_hL 1 DOPA H8Y 21 0.03268500 1.008000
22 L21_cB 1 DOPA C9X 22 -0.24422800 12.010000
23 L21_hB 1 DOPA H9X 23 0.13151200 1.008000
24 L21_cB 1 DOPA C10X 24 -0.23928400 12.010000
25 L21_hB 1 DOPA H10X 25 0.12687800 1.008000
26 L21_cD 1 DOPA C11X 26 0.02905900 12.010000
27 L21_hL 1 DOPA H11X 27 0.03353100 1.008000
28 L21_hL 1 DOPA H11Y 28 0.03353100 1.008000
29 L21_cD 1 DOPA C12X 29 -0.02635300 12.010000
30 L21_hL 1 DOPA H12X 30 0.01971700 1.008000
31 L21_hL 1 DOPA H12Y 31 0.01971700 1.008000
32 L21_cD 1 DOPA C13X 32 -0.01825700 12.010000
33 L21_hL 1 DOPA H13X 33 0.01380000 1.008000
34 L21_hL 1 DOPA H13Y 34 0.01380000 1.008000
35 L21_cD 1 DOPA C14X 35 -0.02484900 12.010000
36 L21_hL 1 DOPA H14X 36 0.00857200 1.008000
37 L21_hL 1 DOPA H14Y 37 0.00857200 1.008000
38 L21_cD 1 DOPA C15X 38 -0.02324700 12.010000
39 L21_hL 1 DOPA H15X 39 0.01040300 1.008000
40 L21_hL 1 DOPA H15Y 40 0.01040300 1.008000
41 L21_cD 1 DOPA C16X 41 -0.01248800 12.010000
42 L21_hL 1 DOPA H16X 42 0.01365900 1.008000
43 L21_hL 1 DOPA H16Y 43 0.01365900 1.008000
44 L21_cD 1 DOPA C17X 44 0.00868400 12.010000
45 L21_hL 1 DOPA H17X 45 0.01002600 1.008000
46 L21_hL 1 DOPA H17Y 46 0.01002600 1.008000
47 L21_cD 1 DOPA C18X 47 -0.11729000 12.010000
48 L21_hL 1 DOPA H18X 48 0.02662700 1.008000
49 L21_hL 1 DOPA H18Y 49 0.02662700 1.008000
50 L21_hL 1 DOPA H18Z 50 0.02662700 1.008000
51 L21_cC 1 DOPA C11 51 0.88820700 12.010000
52 L21_oC 1 DOPA O12 52 -0.67114200 16.000000
53 L21_oS 1 DOPA O11 53 -0.54782400 16.000000
54 L21_cA 1 DOPA C1 54 0.18529900 12.010000
55 L21_hE 1 DOPA HR 55 0.06767600 1.008000
56 L21_hE 1 DOPA HS 56 0.06767600 1.008000
57 L21_cA 1 DOPA C2 57 0.28354600 12.010000
58 L21_hE 1 DOPA HX 58 0.06386200 1.008000
59 L21_cA 1 DOPA C3 59 0.08152800 12.010000
60 L21_hE 1 DOPA HA 60 0.08309900 1.008000
61 L21_hE 1 DOPA HB 61 0.08309900 1.008000
62 L21_oT 1 DOPA O31 62 -0.59419700 16.000000
63 L21_pA 1 DOPA P31 63 1.45666300 30.970000
64 L21_oH 1 DOPA O32 64 -0.70619700 16.000000
65 L21_hO 1 DOPA HO2A 65 0.41562800 1.008000
66 L21_oP 1 DOPA O33 66 -0.91415800 16.000000
67 L21_oP 1 DOPA O34 67 -0.91415800 16.000000
68 L21_oS 1 DOPA O21 68 -0.55448700 16.000000
69 L21_cC 1 DOPA C21 69 0.89750200 12.010000
70 L21_oC 1 DOPA O22 70 -0.67162200 16.000000
71 L21_cD 1 DOPA C2Y 71 -0.14341800 12.010000
72 L21_hL 1 DOPA H2U 72 0.04286100 1.008000
73 L21_hL 1 DOPA H2V 73 0.04286100 1.008000
74 L21_cD 1 DOPA C3Y 74 0.00161900 12.010000
75 L21_hL 1 DOPA H3U 75 0.01952900 1.008000
76 L21_hL 1 DOPA H3V 76 0.01952900 1.008000
77 L21_cD 1 DOPA C4Y 77 -0.02296000 12.010000
78 L21_hL 1 DOPA H4U 78 0.01813400 1.008000
79 L21_hL 1 DOPA H4V 79 0.01813400 1.008000
80 L21_cD 1 DOPA C5Y 80 -0.01669200 12.010000
81 L21_hL 1 DOPA H5U 81 0.00869000 1.008000
82 L21_hL 1 DOPA H5V 82 0.00869000 1.008000
83 L21_cD 1 DOPA C6Y 83 -0.02378900 12.010000
84 L21_hL 1 DOPA H6U 84 0.00926600 1.008000
85 L21_hL 1 DOPA H6V 85 0.00926600 1.008000
86 L21_cD 1 DOPA C7Y 86 -0.01749500 12.010000
87 L21_hL 1 DOPA H7U 87 0.01959800 1.008000
88 L21_hL 1 DOPA H7V 88 0.01959800 1.008000
89 L21_cD 1 DOPA C8Y 89 0.03177500 12.010000
90 L21_hL 1 DOPA H8U 90 0.03268500 1.008000
91 L21_hL 1 DOPA H8V 91 0.03268500 1.008000
92 L21_cB 1 DOPA C9Y 92 -0.24422800 12.010000
93 L21_hB 1 DOPA H9U 93 0.13151200 1.008000
94 L21_cB 1 DOPA C10Y 94 -0.23928400 12.010000
95 L21_hB 1 DOPA H10U 95 0.12687800 1.008000
96 L21_cD 1 DOPA C11Y 96 0.02905900 12.010000
97 L21_hL 1 DOPA H11U 97 0.03353100 1.008000
98 L21_hL 1 DOPA H11V 98 0.03353100 1.008000
99 L21_cD 1 DOPA C12Y 99 -0.02635300 12.010000
100 L21_hL 1 DOPA H12U 100 0.01971700 1.008000
101 L21_hL 1 DOPA H12V 101 0.01971700 1.008000
102 L21_cD 1 DOPA C13Y 102 -0.01825700 12.010000
103 L21_hL 1 DOPA H13U 103 0.01380000 1.008000
104 L21_hL 1 DOPA H13V 104 0.01380000 1.008000
105 L21_cD 1 DOPA C14Y 105 -0.02484900 12.010000
106 L21_hL 1 DOPA H14U 106 0.00857200 1.008000
107 L21_hL 1 DOPA H14V 107 0.00857200 1.008000
108 L21_cD 1 DOPA C15Y 108 -0.02324700 12.010000
109 L21_hL 1 DOPA H15U 109 0.01040300 1.008000
110 L21_hL 1 DOPA H15V 110 0.01040300 1.008000
111 L21_cD 1 DOPA C16Y 111 -0.01248800 12.010000
112 L21_hL 1 DOPA H16U 112 0.01365900 1.008000
113 L21_hL 1 DOPA H16V 113 0.01365900 1.008000
114 L21_cD 1 DOPA C17Y 114 0.00868400 12.010000
115 L21_hL 1 DOPA H17U 115 0.01002600 1.008000
116 L21_hL 1 DOPA H17V 116 0.01002600 1.008000
117 L21_cD 1 DOPA C18Y 117 -0.11729000 12.010000
118 L21_hL 1 DOPA H18U 118 0.02662700 1.008000
119 L21_hL 1 DOPA H18V 119 0.02662700 1.008000
120 L21_hL 1 DOPA H18W 120 0.02662700 1.008000

[ bonds ]
;    ai     aj funct         c0         c1         c2         c3
     44     47     1   0.15350 253634.080000
     41     44     1   0.15350 253634.080000
     38     41     1   0.15350 253634.080000
     35     38     1   0.15350 253634.080000
     32     35     1   0.15350 253634.080000
     29     32     1   0.15350 253634.080000
     26     29     1   0.15350 253634.080000
     24     26     1   0.15080 274721.440000
     22     24     1   0.13240 493460.960000
     19     22     1   0.15080 274721.440000
     16     19     1   0.15350 253634.080000
     13     16     1   0.15350 253634.080000
     10     13     1   0.15350 253634.080000
      7     10     1   0.15350 253634.080000
      4      7     1   0.15350 253634.080000
      1      4     1   0.15350 253634.080000
      1     51     1   0.15080 274721.440000
     69     70     1   0.12140 542246.400000
     69     71     1   0.15080 274721.440000
     68     69     1   0.13430 344175.840000
     63     64     1   0.16250 268780.160000
     63     66     1   0.14800 439320.000000
     63     67     1   0.14800 439320.000000
     62     63     1   0.16100 192464.000000
     59     62     1   0.14390 252295.200000
     57     59     1   0.15350 253634.080000
     57     68     1   0.14390 252295.200000
     54     57     1   0.15350 253634.080000
     53     54     1   0.14390 252295.200000
     51     52     1   0.12140 542246.400000
     51     53     1   0.13430 344175.840000
    114    117     1   0.15350 253634.080000
    111    114     1   0.15350 253634.080000
    108    111     1   0.15350 253634.080000
    105    108     1   0.15350 253634.080000
    102    105     1   0.15350 253634.080000
     99    102     1   0.15350 253634.080000
     96     99     1   0.15350 253634.080000
     94     96     1   0.15080 274721.440000
     92     94     1   0.13240 493460.960000
     89     92     1   0.15080 274721.440000
     86     89     1   0.15350 253634.080000
     83     86     1   0.15350 253634.080000
     80     83     1   0.15350 253634.080000
     77     80     1   0.15350 253634.080000
     74     77     1   0.15350 253634.080000
     71     74     1   0.15350 253634.080000
     47     48     1   0.10920 282252.640000
     47     49     1   0.10920 282252.640000
     47     50     1   0.10920 282252.640000
     44     45     1   0.10920 282252.640000
     44     46     1   0.10920 282252.640000
     41     42     1   0.10920 282252.640000
     41     43     1   0.10920 282252.640000
     38     39     1   0.10920 282252.640000
     38     40     1   0.10920 282252.640000
     35     36     1   0.10920 282252.640000
     35     37     1   0.10920 282252.640000
     32     33     1   0.10920 282252.640000
     32     34     1   0.10920 282252.640000
     29     30     1   0.10920 282252.640000
     29     31     1   0.10920 282252.640000
     26     27     1   0.10920 282252.640000
     26     28     1   0.10920 282252.640000
     24     25     1   0.10870 288110.240000
     22     23     1   0.10870 288110.240000
     19     20     1   0.10920 282252.640000
     19     21     1   0.10920 282252.640000
     16     17     1   0.10920 282252.640000
     16     18     1   0.10920 282252.640000
     13     14     1   0.10920 282252.640000
     13     15     1   0.10920 282252.640000
     10     11     1   0.10920 282252.640000
     10     12     1   0.10920 282252.640000
      7      8     1   0.10920 282252.640000
      7      9     1   0.10920 282252.640000
      4      5     1   0.10920 282252.640000
      4      6     1   0.10920 282252.640000
      1      2     1   0.10920 282252.640000
      1      3     1   0.10920 282252.640000
     64     65     1   0.09740 309281.280000
     59     60     1   0.10930 281081.120000
     59     61     1   0.10930 281081.120000
     57     58     1   0.10930 281081.120000
     54     55     1   0.10930 281081.120000
     54     56     1   0.10930 281081.120000
    117    118     1   0.10920 282252.640000
    117    119     1   0.10920 282252.640000
    117    120     1   0.10920 282252.640000
    114    115     1   0.10920 282252.640000
    114    116     1   0.10920 282252.640000
    111    112     1   0.10920 282252.640000
    111    113     1   0.10920 282252.640000
    108    109     1   0.10920 282252.640000
    108    110     1   0.10920 282252.640000
    105    106     1   0.10920 282252.640000
    105    107     1   0.10920 282252.640000
    102    103     1   0.10920 282252.640000
    102    104     1   0.10920 282252.640000
     99    100     1   0.10920 282252.640000
     99    101     1   0.10920 282252.640000
     96     97     1   0.10920 282252.640000
     96     98     1   0.10920 282252.640000
     94     95     1   0.10870 288110.240000
     92     93     1   0.10870 288110.240000
     89     90     1   0.10920 282252.640000
     89     91     1   0.10920 282252.640000
     86     87     1   0.10920 282252.640000
     86     88     1   0.10920 282252.640000
     83     84     1   0.10920 282252.640000
     83     85     1   0.10920 282252.640000
     80     81     1   0.10920 282252.640000
     80     82     1   0.10920 282252.640000
     77     78     1   0.10920 282252.640000
     77     79     1   0.10920 282252.640000
     74     75     1   0.10920 282252.640000
     74     76     1   0.10920 282252.640000
     71     72     1   0.10920 282252.640000
     71     73     1   0.10920 282252.640000


[ pairs ]
; ai aj funct fudgeQQ qi qj sigma epsilon; source-specific LJ and charge scaling
1 8 2 0.83333333333333 -0.14341799992317 0.018133999989024 0.30005468824211 0.069194303392389
1 9 2 0.83333333333333 -0.14341799992317 0.018133999989024 0.30005468824211 0.069194303392389
1 10 2 0.83333333333333 -0.14341799992317 -0.016692000021951 0.33996695084507 0.076288266607901
1 54 2 0.83333333333333 -0.14341799992317 0.18529900012622 0.33996695084507 0.2288647998237
2 5 2 0.83333333333333 0.042860999983537 0.019529000016463 0.26014242576773 0.020919999936173
2 6 2 0.83333333333333 0.042860999983537 0.019529000016463 0.26014242576773 0.020919999936173
2 7 2 0.83333333333333 0.042860999983537 -0.02296 0.30005468824211 0.069194303392389
2 52 2 0.83333333333333 0.042860999983537 -0.67114200183292 0.27806730790153 0.095867483596702
2 53 2 0.83333333333333 0.042860999983537 -0.54782400026341 0.2800718300513 0.086255369632554
3 5 2 0.83333333333333 0.042860999983537 0.019529000016463 0.26014242576773 0.020919999936173
3 6 2 0.83333333333333 0.042860999983537 0.019529000016463 0.26014242576773 0.020919999936173
3 7 2 0.83333333333333 0.042860999983537 -0.02296 0.30005468824211 0.069194303392389
3 52 2 0.83333333333333 0.042860999983537 -0.67114200183292 0.27806730790153 0.095867483596702
3 53 2 0.83333333333333 0.042860999983537 -0.54782400026341 0.2800718300513 0.086255369632554
4 11 2 0.83333333333333 0.001619 0.00869 0.30005468824211 0.069194303392389
4 12 2 0.83333333333333 0.001619 0.00869 0.30005468824211 0.069194303392389
4 13 2 0.83333333333333 0.001619 -0.023789000016463 0.33996695084507 0.076288266607901
4 52 2 0.83333333333333 0.001619 -0.67114200183292 0.31797957047595 0.31708813257529
4 53 2 0.83333333333333 0.001619 -0.54782400026341 0.31998409262799 0.28529542121767
5 8 2 0.83333333333333 0.019529000016463 0.018133999989024 0.26014242576773 0.020919999936173
5 9 2 0.83333333333333 0.019529000016463 0.018133999989024 0.26014242576773 0.020919999936173
5 10 2 0.83333333333333 0.019529000016463 -0.016692000021951 0.30005468824211 0.069194303392389
5 51 2 0.83333333333333 0.019529000016463 0.88820699911647 0.30005468825729 0.061349482798597
6 8 2 0.83333333333333 0.019529000016463 0.018133999989024 0.26014242576773 0.020919999936173
6 9 2 0.83333333333333 0.019529000016463 0.018133999989024 0.26014242576773 0.020919999936173
6 10 2 0.83333333333333 0.019529000016463 -0.016692000021951 0.30005468824211 0.069194303392389
6 51 2 0.83333333333333 0.019529000016463 0.88820699911647 0.30005468825729 0.061349482798597
7 14 2 0.83333333333333 -0.02296 0.0092660000109756 0.30005468824211 0.069194303392389
7 15 2 0.83333333333333 -0.02296 0.0092660000109756 0.30005468824211 0.069194303392389
7 16 2 0.83333333333333 -0.02296 -0.017495000027439 0.33996695084507 0.076288266607901
7 51 2 0.83333333333333 -0.02296 0.88820699911647 0.33996695087407 0.20291752963184
8 11 2 0.83333333333333 0.018133999989024 0.00869 0.26014242576773 0.020919999936173
8 12 2 0.83333333333333 0.018133999989024 0.00869 0.26014242576773 0.020919999936173
8 13 2 0.83333333333333 0.018133999989024 -0.023789000016463 0.30005468824211 0.069194303392389
9 11 2 0.83333333333333 0.018133999989024 0.00869 0.26014242576773 0.020919999936173
9 12 2 0.83333333333333 0.018133999989024 0.00869 0.26014242576773 0.020919999936173
9 13 2 0.83333333333333 0.018133999989024 -0.023789000016463 0.30005468824211 0.069194303392389
10 17 2 0.83333333333333 -0.016692000021951 0.019597999978049 0.30005468824211 0.069194303392389
10 18 2 0.83333333333333 -0.016692000021951 0.019597999978049 0.30005468824211 0.069194303392389
10 19 2 0.83333333333333 -0.016692000021951 0.031775000027439 0.33996695084507 0.076288266607901
11 14 2 0.83333333333333 0.00869 0.0092660000109756 0.26014242576773 0.020919999936173
11 15 2 0.83333333333333 0.00869 0.0092660000109756 0.26014242576773 0.020919999936173
11 16 2 0.83333333333333 0.00869 -0.017495000027439 0.30005468824211 0.069194303392389
12 14 2 0.83333333333333 0.00869 0.0092660000109756 0.26014242576773 0.020919999936173
12 15 2 0.83333333333333 0.00869 0.0092660000109756 0.26014242576773 0.020919999936173
12 16 2 0.83333333333333 0.00869 -0.017495000027439 0.30005468824211 0.069194303392389
13 20 2 0.83333333333333 -0.023789000016463 0.032685000027439 0.30005468824211 0.069194303392389
13 21 2 0.83333333333333 -0.023789000016463 0.032685000027439 0.30005468824211 0.069194303392389
13 22 2 0.83333333333333 -0.023789000016463 -0.24422799975854 0.33996695087407 0.20291752963184
14 17 2 0.83333333333333 0.0092660000109756 0.019597999978049 0.26014242576773 0.020919999936173
14 18 2 0.83333333333333 0.0092660000109756 0.019597999978049 0.26014242576773 0.020919999936173
14 19 2 0.83333333333333 0.0092660000109756 0.031775000027439 0.30005468824211 0.069194303392389
15 17 2 0.83333333333333 0.0092660000109756 0.019597999978049 0.26014242576773 0.020919999936173
15 18 2 0.83333333333333 0.0092660000109756 0.019597999978049 0.26014242576773 0.020919999936173
15 19 2 0.83333333333333 0.0092660000109756 0.031775000027439 0.30005468824211 0.069194303392389
16 23 2 0.83333333333333 -0.017495000027439 0.13151200013171 0.28134581515096 0.057892107742859
16 24 2 0.83333333333333 -0.017495000027439 -0.23928399982439 0.33996695087407 0.20291752963184
17 20 2 0.83333333333333 0.019597999978049 0.032685000027439 0.26014242576773 0.020919999936173
17 21 2 0.83333333333333 0.019597999978049 0.032685000027439 0.26014242576773 0.020919999936173
17 22 2 0.83333333333333 0.019597999978049 -0.24422799975854 0.30005468825729 0.061349482798597
18 20 2 0.83333333333333 0.019597999978049 0.032685000027439 0.26014242576773 0.020919999936173
18 21 2 0.83333333333333 0.019597999978049 0.032685000027439 0.26014242576773 0.020919999936173
18 22 2 0.83333333333333 0.019597999978049 -0.24422799975854 0.30005468825729 0.061349482798597
19 25 2 0.83333333333333 0.031775000027439 0.12687800003293 0.28134581515096 0.057892107742859
19 26 2 0.83333333333333 0.031775000027439 0.029059000016463 0.33996695084507 0.2288647998237
20 23 2 0.83333333333333 0.032685000027439 0.13151200013171 0.24143355271439 0.017502927720476
20 24 2 0.83333333333333 0.032685000027439 -0.23928399982439 0.30005468825729 0.061349482798597
21 23 2 0.83333333333333 0.032685000027439 0.13151200013171 0.24143355271439 0.017502927720476
21 24 2 0.83333333333333 0.032685000027439 -0.23928399982439 0.30005468825729 0.061349482798597
22 27 2 0.83333333333333 -0.24422799975854 0.033530999983537 0.30005468825729 0.061349482798597
22 28 2 0.83333333333333 -0.24422799975854 0.033530999983537 0.30005468825729 0.061349482798597
22 29 2 0.83333333333333 -0.24422799975854 -0.026353000005488 0.33996695087407 0.20291752963184
23 25 2 0.83333333333333 0.13151200013171 0.12687800003293 0.22272467949703 0.014644000015013
23 26 2 0.83333333333333 0.13151200013171 0.029059000016463 0.28134581515096 0.057892107742859
24 30 2 0.83333333333333 -0.23928399982439 0.019716999994512 0.30005468825729 0.061349482798597
24 31 2 0.83333333333333 -0.23928399982439 0.019716999994512 0.30005468825729 0.061349482798597
24 32 2 0.83333333333333 -0.23928399982439 -0.018256999994512 0.33996695087407 0.20291752963184
25 27 2 0.83333333333333 0.12687800003293 0.033530999983537 0.24143355271439 0.017502927720476
25 28 2 0.83333333333333 0.12687800003293 0.033530999983537 0.24143355271439 0.017502927720476
25 29 2 0.83333333333333 0.12687800003293 -0.026353000005488 0.28134581515096 0.057892107742859
26 33 2 0.83333333333333 0.029059000016463 0.0138 0.30005468824211 0.069194303392389
26 34 2 0.83333333333333 0.029059000016463 0.0138 0.30005468824211 0.069194303392389
26 35 2 0.83333333333333 0.029059000016463 -0.024849000016463 0.33996695084507 0.076288266607901
27 30 2 0.83333333333333 0.033530999983537 0.019716999994512 0.26014242576773 0.020919999936173
27 31 2 0.83333333333333 0.033530999983537 0.019716999994512 0.26014242576773 0.020919999936173
27 32 2 0.83333333333333 0.033530999983537 -0.018256999994512 0.30005468824211 0.069194303392389
28 30 2 0.83333333333333 0.033530999983537 0.019716999994512 0.26014242576773 0.020919999936173
28 31 2 0.83333333333333 0.033530999983537 0.019716999994512 0.26014242576773 0.020919999936173
28 32 2 0.83333333333333 0.033530999983537 -0.018256999994512 0.30005468824211 0.069194303392389
29 36 2 0.83333333333333 -0.026353000005488 0.0085720000219511 0.30005468824211 0.069194303392389
29 37 2 0.83333333333333 -0.026353000005488 0.0085720000219511 0.30005468824211 0.069194303392389
29 38 2 0.83333333333333 -0.026353000005488 -0.023246999994512 0.33996695084507 0.076288266607901
30 33 2 0.83333333333333 0.019716999994512 0.0138 0.26014242576773 0.020919999936173
30 34 2 0.83333333333333 0.019716999994512 0.0138 0.26014242576773 0.020919999936173
30 35 2 0.83333333333333 0.019716999994512 -0.024849000016463 0.30005468824211 0.069194303392389
31 33 2 0.83333333333333 0.019716999994512 0.0138 0.26014242576773 0.020919999936173
31 34 2 0.83333333333333 0.019716999994512 0.0138 0.26014242576773 0.020919999936173
31 35 2 0.83333333333333 0.019716999994512 -0.024849000016463 0.30005468824211 0.069194303392389
32 39 2 0.83333333333333 -0.018256999994512 0.010403000005488 0.30005468824211 0.069194303392389
32 40 2 0.83333333333333 -0.018256999994512 0.010403000005488 0.30005468824211 0.069194303392389
32 41 2 0.83333333333333 -0.018256999994512 -0.012487999978049 0.33996695084507 0.076288266607901
33 36 2 0.83333333333333 0.0138 0.0085720000219511 0.26014242576773 0.020919999936173
33 37 2 0.83333333333333 0.0138 0.0085720000219511 0.26014242576773 0.020919999936173
33 38 2 0.83333333333333 0.0138 -0.023246999994512 0.30005468824211 0.069194303392389
34 36 2 0.83333333333333 0.0138 0.0085720000219511 0.26014242576773 0.020919999936173
34 37 2 0.83333333333333 0.0138 0.0085720000219511 0.26014242576773 0.020919999936173
34 38 2 0.83333333333333 0.0138 -0.023246999994512 0.30005468824211 0.069194303392389
35 42 2 0.83333333333333 -0.024849000016463 0.013659000016463 0.30005468824211 0.069194303392389
35 43 2 0.83333333333333 -0.024849000016463 0.013659000016463 0.30005468824211 0.069194303392389
35 44 2 0.83333333333333 -0.024849000016463 0.0086839999890244 0.33996695084507 0.076288266607901
36 39 2 0.83333333333333 0.0085720000219511 0.010403000005488 0.26014242576773 0.020919999936173
36 40 2 0.83333333333333 0.0085720000219511 0.010403000005488 0.26014242576773 0.020919999936173
36 41 2 0.83333333333333 0.0085720000219511 -0.012487999978049 0.30005468824211 0.069194303392389
37 39 2 0.83333333333333 0.0085720000219511 0.010403000005488 0.26014242576773 0.020919999936173
37 40 2 0.83333333333333 0.0085720000219511 0.010403000005488 0.26014242576773 0.020919999936173
37 41 2 0.83333333333333 0.0085720000219511 -0.012487999978049 0.30005468824211 0.069194303392389
38 45 2 0.83333333333333 -0.023246999994512 0.010026000010976 0.30005468824211 0.069194303392389
38 46 2 0.83333333333333 -0.023246999994512 0.010026000010976 0.30005468824211 0.069194303392389
38 47 2 0.83333333333333 -0.023246999994512 -0.11729000016463 0.33996695084507 0.076288266607901
39 42 2 0.83333333333333 0.010403000005488 0.013659000016463 0.26014242576773 0.020919999936173
39 43 2 0.83333333333333 0.010403000005488 0.013659000016463 0.26014242576773 0.020919999936173
39 44 2 0.83333333333333 0.010403000005488 0.0086839999890244 0.30005468824211 0.069194303392389
40 42 2 0.83333333333333 0.010403000005488 0.013659000016463 0.26014242576773 0.020919999936173
40 43 2 0.83333333333333 0.010403000005488 0.013659000016463 0.26014242576773 0.020919999936173
40 44 2 0.83333333333333 0.010403000005488 0.0086839999890244 0.30005468824211 0.069194303392389
41 48 2 0.83333333333333 -0.012487999978049 0.026626999994512 0.30005468824211 0.069194303392389
41 49 2 0.83333333333333 -0.012487999978049 0.026626999994512 0.30005468824211 0.069194303392389
41 50 2 0.83333333333333 -0.012487999978049 0.026626999994512 0.30005468824211 0.069194303392389
42 45 2 0.83333333333333 0.013659000016463 0.010026000010976 0.26014242576773 0.020919999936173
42 46 2 0.83333333333333 0.013659000016463 0.010026000010976 0.26014242576773 0.020919999936173
42 47 2 0.83333333333333 0.013659000016463 -0.11729000016463 0.30005468824211 0.069194303392389
43 45 2 0.83333333333333 0.013659000016463 0.010026000010976 0.26014242576773 0.020919999936173
43 46 2 0.83333333333333 0.013659000016463 0.010026000010976 0.26014242576773 0.020919999936173
43 47 2 0.83333333333333 0.013659000016463 -0.11729000016463 0.30005468824211 0.069194303392389
45 48 2 0.83333333333333 0.010026000010976 0.026626999994512 0.26014242576773 0.020919999936173
45 49 2 0.83333333333333 0.010026000010976 0.026626999994512 0.26014242576773 0.020919999936173
45 50 2 0.83333333333333 0.010026000010976 0.026626999994512 0.26014242576773 0.020919999936173
46 48 2 0.83333333333333 0.010026000010976 0.026626999994512 0.26014242576773 0.020919999936173
46 49 2 0.83333333333333 0.010026000010976 0.026626999994512 0.26014242576773 0.020919999936173
46 50 2 0.83333333333333 0.010026000010976 0.026626999994512 0.26014242576773 0.020919999936173
51 55 2 0.83333333333333 0.88820699911647 0.067675999736586 0.29355112761526 0.076870681673027
51 56 2 0.83333333333333 0.88820699911647 0.067675999736586 0.29355112761526 0.076870681673027
51 57 2 0.83333333333333 0.88820699911647 0.28354600023049 0.33996695087407 0.20291752963184
52 54 2 0.83333333333333 -0.67114200183292 0.18529900012622 0.31797957047595 0.31708813257529
53 58 2 0.83333333333333 -0.54782400026341 0.063861999857318 0.27356826939641 0.10807766839674
53 59 2 0.83333333333333 -0.54782400026341 0.081527999758538 0.31998409262799 0.28529542121767
53 68 2 0.83333333333333 -0.54782400026341 -0.55448700218962 0.30000123432245 0.35564000022068
54 60 2 0.83333333333333 0.18529900012622 0.083099000126219 0.29355112776543 0.086700213146672
54 61 2 0.83333333333333 0.18529900012622 0.083099000126219 0.29355112776543 0.086700213146672
54 62 2 0.83333333333333 0.18529900012622 -0.59419700037866 0.31998409262799 0.28529542121767
54 69 2 0.83333333333333 0.18529900012622 0.89750200029634 0.33996695087407 0.20291752963184
55 58 2 0.83333333333333 0.067675999736586 0.063861999857318 0.24713530426422 0.032844400205981
55 59 2 0.83333333333333 0.067675999736586 0.081527999758538 0.29355112776543 0.086700213146672
55 68 2 0.83333333333333 0.067675999736586 -0.55448700218962 0.27356826939641 0.10807766839674
56 58 2 0.83333333333333 0.067675999736586 0.063861999857318 0.24713530426422 0.032844400205981
56 59 2 0.83333333333333 0.067675999736586 0.081527999758538 0.29355112776543 0.086700213146672
56 68 2 0.83333333333333 0.067675999736586 -0.55448700218962 0.27356826939641 0.10807766839674
57 63 2 0.83333333333333 0.28354600023049 1.4566630008287 0.35707220617836 0.30944633210394
57 70 2 0.83333333333333 0.28354600023049 -0.67162200161341 0.31797957047595 0.31708813257529
57 71 2 0.83333333333333 0.28354600023049 -0.14341799992317 0.33996695084507 0.2288647998237
58 60 2 0.83333333333333 0.063861999857318 0.083099000126219 0.24713530426422 0.032844400205981
58 61 2 0.83333333333333 0.063861999857318 0.083099000126219 0.24713530426422 0.032844400205981
58 62 2 0.83333333333333 0.063861999857318 -0.59419700037866 0.27356826939641 0.10807766839674
58 69 2 0.83333333333333 0.063861999857318 0.89750200029634 0.29355112761526 0.076870681673027
59 64 2 0.83333333333333 0.081527999758538 -0.70619700037866 0.32330714485393 0.31738997747947
59 66 2 0.83333333333333 0.081527999758538 -0.91415799871586 0.31797957047595 0.31708813257529
59 67 2 0.83333333333333 0.081527999758538 -0.91415799871586 0.31797957047595 0.31708813257529
59 69 2 0.83333333333333 0.081527999758538 0.89750200029634 0.33996695087407 0.20291752963184
60 63 2 0.83333333333333 0.083099000126219 1.4566630008287 0.31065638299277 0.11722669057481
60 68 2 0.83333333333333 0.083099000126219 -0.55448700218962 0.27356826939641 0.10807766839674
61 63 2 0.83333333333333 0.083099000126219 1.4566630008287 0.31065638299277 0.11722669057481
61 68 2 0.83333333333333 0.083099000126219 -0.55448700218962 0.27356826939641 0.10807766839674
62 65 2 0.83333333333333 -0.59419700037866 0.41562799975854 0.20345454034333 0.10807766790252
62 68 2 0.83333333333333 -0.59419700037866 -0.55448700218962 0.30000123432245 0.35564000022068
65 66 2 0.83333333333333 0.41562799975854 -0.91415799871586 0.20145001816794 0.12012161236148
65 67 2 0.83333333333333 0.41562799975854 -0.91415799871586 0.20145001816794 0.12012161236148
68 72 2 0.83333333333333 -0.55448700218962 0.042860999983537 0.2800718300513 0.086255369632554
68 73 2 0.83333333333333 -0.55448700218962 0.042860999983537 0.2800718300513 0.086255369632554
68 74 2 0.83333333333333 -0.55448700218962 0.001619 0.31998409262799 0.28529542121767
69 75 2 0.83333333333333 0.89750200029634 0.019529000016463 0.30005468825729 0.061349482798597
69 76 2 0.83333333333333 0.89750200029634 0.019529000016463 0.30005468825729 0.061349482798597
69 77 2 0.83333333333333 0.89750200029634 -0.02296 0.33996695087407 0.20291752963184
70 72 2 0.83333333333333 -0.67162200161341 0.042860999983537 0.27806730790153 0.095867483596702
70 73 2 0.83333333333333 -0.67162200161341 0.042860999983537 0.27806730790153 0.095867483596702
70 74 2 0.83333333333333 -0.67162200161341 0.001619 0.31797957047595 0.31708813257529
71 78 2 0.83333333333333 -0.14341799992317 0.018133999989024 0.30005468824211 0.069194303392389
71 79 2 0.83333333333333 -0.14341799992317 0.018133999989024 0.30005468824211 0.069194303392389
71 80 2 0.83333333333333 -0.14341799992317 -0.016692000021951 0.33996695084507 0.076288266607901
72 75 2 0.83333333333333 0.042860999983537 0.019529000016463 0.26014242576773 0.020919999936173
72 76 2 0.83333333333333 0.042860999983537 0.019529000016463 0.26014242576773 0.020919999936173
72 77 2 0.83333333333333 0.042860999983537 -0.02296 0.30005468824211 0.069194303392389
73 75 2 0.83333333333333 0.042860999983537 0.019529000016463 0.26014242576773 0.020919999936173
73 76 2 0.83333333333333 0.042860999983537 0.019529000016463 0.26014242576773 0.020919999936173
73 77 2 0.83333333333333 0.042860999983537 -0.02296 0.30005468824211 0.069194303392389
74 81 2 0.83333333333333 0.001619 0.00869 0.30005468824211 0.069194303392389
74 82 2 0.83333333333333 0.001619 0.00869 0.30005468824211 0.069194303392389
74 83 2 0.83333333333333 0.001619 -0.023789000016463 0.33996695084507 0.076288266607901
75 78 2 0.83333333333333 0.019529000016463 0.018133999989024 0.26014242576773 0.020919999936173
75 79 2 0.83333333333333 0.019529000016463 0.018133999989024 0.26014242576773 0.020919999936173
75 80 2 0.83333333333333 0.019529000016463 -0.016692000021951 0.30005468824211 0.069194303392389
76 78 2 0.83333333333333 0.019529000016463 0.018133999989024 0.26014242576773 0.020919999936173
76 79 2 0.83333333333333 0.019529000016463 0.018133999989024 0.26014242576773 0.020919999936173
76 80 2 0.83333333333333 0.019529000016463 -0.016692000021951 0.30005468824211 0.069194303392389
77 84 2 0.83333333333333 -0.02296 0.0092660000109756 0.30005468824211 0.069194303392389
77 85 2 0.83333333333333 -0.02296 0.0092660000109756 0.30005468824211 0.069194303392389
77 86 2 0.83333333333333 -0.02296 -0.017495000027439 0.33996695084507 0.076288266607901
78 81 2 0.83333333333333 0.018133999989024 0.00869 0.26014242576773 0.020919999936173
78 82 2 0.83333333333333 0.018133999989024 0.00869 0.26014242576773 0.020919999936173
78 83 2 0.83333333333333 0.018133999989024 -0.023789000016463 0.30005468824211 0.069194303392389
79 81 2 0.83333333333333 0.018133999989024 0.00869 0.26014242576773 0.020919999936173
79 82 2 0.83333333333333 0.018133999989024 0.00869 0.26014242576773 0.020919999936173
79 83 2 0.83333333333333 0.018133999989024 -0.023789000016463 0.30005468824211 0.069194303392389
80 87 2 0.83333333333333 -0.016692000021951 0.019597999978049 0.30005468824211 0.069194303392389
80 88 2 0.83333333333333 -0.016692000021951 0.019597999978049 0.30005468824211 0.069194303392389
80 89 2 0.83333333333333 -0.016692000021951 0.031775000027439 0.33996695084507 0.076288266607901
81 84 2 0.83333333333333 0.00869 0.0092660000109756 0.26014242576773 0.020919999936173
81 85 2 0.83333333333333 0.00869 0.0092660000109756 0.26014242576773 0.020919999936173
81 86 2 0.83333333333333 0.00869 -0.017495000027439 0.30005468824211 0.069194303392389
82 84 2 0.83333333333333 0.00869 0.0092660000109756 0.26014242576773 0.020919999936173
82 85 2 0.83333333333333 0.00869 0.0092660000109756 0.26014242576773 0.020919999936173
82 86 2 0.83333333333333 0.00869 -0.017495000027439 0.30005468824211 0.069194303392389
83 90 2 0.83333333333333 -0.023789000016463 0.032685000027439 0.30005468824211 0.069194303392389
83 91 2 0.83333333333333 -0.023789000016463 0.032685000027439 0.30005468824211 0.069194303392389
83 92 2 0.83333333333333 -0.023789000016463 -0.24422799975854 0.33996695087407 0.20291752963184
84 87 2 0.83333333333333 0.0092660000109756 0.019597999978049 0.26014242576773 0.020919999936173
84 88 2 0.83333333333333 0.0092660000109756 0.019597999978049 0.26014242576773 0.020919999936173
84 89 2 0.83333333333333 0.0092660000109756 0.031775000027439 0.30005468824211 0.069194303392389
85 87 2 0.83333333333333 0.0092660000109756 0.019597999978049 0.26014242576773 0.020919999936173
85 88 2 0.83333333333333 0.0092660000109756 0.019597999978049 0.26014242576773 0.020919999936173
85 89 2 0.83333333333333 0.0092660000109756 0.031775000027439 0.30005468824211 0.069194303392389
86 93 2 0.83333333333333 -0.017495000027439 0.13151200013171 0.28134581515096 0.057892107742859
86 94 2 0.83333333333333 -0.017495000027439 -0.23928399982439 0.33996695087407 0.20291752963184
87 90 2 0.83333333333333 0.019597999978049 0.032685000027439 0.26014242576773 0.020919999936173
87 91 2 0.83333333333333 0.019597999978049 0.032685000027439 0.26014242576773 0.020919999936173
87 92 2 0.83333333333333 0.019597999978049 -0.24422799975854 0.30005468825729 0.061349482798597
88 90 2 0.83333333333333 0.019597999978049 0.032685000027439 0.26014242576773 0.020919999936173
88 91 2 0.83333333333333 0.019597999978049 0.032685000027439 0.26014242576773 0.020919999936173
88 92 2 0.83333333333333 0.019597999978049 -0.24422799975854 0.30005468825729 0.061349482798597
89 95 2 0.83333333333333 0.031775000027439 0.12687800003293 0.28134581515096 0.057892107742859
89 96 2 0.83333333333333 0.031775000027439 0.029059000016463 0.33996695084507 0.2288647998237
90 93 2 0.83333333333333 0.032685000027439 0.13151200013171 0.24143355271439 0.017502927720476
90 94 2 0.83333333333333 0.032685000027439 -0.23928399982439 0.30005468825729 0.061349482798597
91 93 2 0.83333333333333 0.032685000027439 0.13151200013171 0.24143355271439 0.017502927720476
91 94 2 0.83333333333333 0.032685000027439 -0.23928399982439 0.30005468825729 0.061349482798597
92 97 2 0.83333333333333 -0.24422799975854 0.033530999983537 0.30005468825729 0.061349482798597
92 98 2 0.83333333333333 -0.24422799975854 0.033530999983537 0.30005468825729 0.061349482798597
92 99 2 0.83333333333333 -0.24422799975854 -0.026353000005488 0.33996695087407 0.20291752963184
93 95 2 0.83333333333333 0.13151200013171 0.12687800003293 0.22272467949703 0.014644000015013
93 96 2 0.83333333333333 0.13151200013171 0.029059000016463 0.28134581515096 0.057892107742859
94 100 2 0.83333333333333 -0.23928399982439 0.019716999994512 0.30005468825729 0.061349482798597
94 101 2 0.83333333333333 -0.23928399982439 0.019716999994512 0.30005468825729 0.061349482798597
94 102 2 0.83333333333333 -0.23928399982439 -0.018256999994512 0.33996695087407 0.20291752963184
95 97 2 0.83333333333333 0.12687800003293 0.033530999983537 0.24143355271439 0.017502927720476
95 98 2 0.83333333333333 0.12687800003293 0.033530999983537 0.24143355271439 0.017502927720476
95 99 2 0.83333333333333 0.12687800003293 -0.026353000005488 0.28134581515096 0.057892107742859
96 103 2 0.83333333333333 0.029059000016463 0.0138 0.30005468824211 0.069194303392389
96 104 2 0.83333333333333 0.029059000016463 0.0138 0.30005468824211 0.069194303392389
96 105 2 0.83333333333333 0.029059000016463 -0.024849000016463 0.33996695084507 0.076288266607901
97 100 2 0.83333333333333 0.033530999983537 0.019716999994512 0.26014242576773 0.020919999936173
97 101 2 0.83333333333333 0.033530999983537 0.019716999994512 0.26014242576773 0.020919999936173
97 102 2 0.83333333333333 0.033530999983537 -0.018256999994512 0.30005468824211 0.069194303392389
98 100 2 0.83333333333333 0.033530999983537 0.019716999994512 0.26014242576773 0.020919999936173
98 101 2 0.83333333333333 0.033530999983537 0.019716999994512 0.26014242576773 0.020919999936173
98 102 2 0.83333333333333 0.033530999983537 -0.018256999994512 0.30005468824211 0.069194303392389
99 106 2 0.83333333333333 -0.026353000005488 0.0085720000219511 0.30005468824211 0.069194303392389
99 107 2 0.83333333333333 -0.026353000005488 0.0085720000219511 0.30005468824211 0.069194303392389
99 108 2 0.83333333333333 -0.026353000005488 -0.023246999994512 0.33996695084507 0.076288266607901
100 103 2 0.83333333333333 0.019716999994512 0.0138 0.26014242576773 0.020919999936173
100 104 2 0.83333333333333 0.019716999994512 0.0138 0.26014242576773 0.020919999936173
100 105 2 0.83333333333333 0.019716999994512 -0.024849000016463 0.30005468824211 0.069194303392389
101 103 2 0.83333333333333 0.019716999994512 0.0138 0.26014242576773 0.020919999936173
101 104 2 0.83333333333333 0.019716999994512 0.0138 0.26014242576773 0.020919999936173
101 105 2 0.83333333333333 0.019716999994512 -0.024849000016463 0.30005468824211 0.069194303392389
102 109 2 0.83333333333333 -0.018256999994512 0.010403000005488 0.30005468824211 0.069194303392389
102 110 2 0.83333333333333 -0.018256999994512 0.010403000005488 0.30005468824211 0.069194303392389
102 111 2 0.83333333333333 -0.018256999994512 -0.012487999978049 0.33996695084507 0.076288266607901
103 106 2 0.83333333333333 0.0138 0.0085720000219511 0.26014242576773 0.020919999936173
103 107 2 0.83333333333333 0.0138 0.0085720000219511 0.26014242576773 0.020919999936173
103 108 2 0.83333333333333 0.0138 -0.023246999994512 0.30005468824211 0.069194303392389
104 106 2 0.83333333333333 0.0138 0.0085720000219511 0.26014242576773 0.020919999936173
104 107 2 0.83333333333333 0.0138 0.0085720000219511 0.26014242576773 0.020919999936173
104 108 2 0.83333333333333 0.0138 -0.023246999994512 0.30005468824211 0.069194303392389
105 112 2 0.83333333333333 -0.024849000016463 0.013659000016463 0.30005468824211 0.069194303392389
105 113 2 0.83333333333333 -0.024849000016463 0.013659000016463 0.30005468824211 0.069194303392389
105 114 2 0.83333333333333 -0.024849000016463 0.0086839999890244 0.33996695084507 0.076288266607901
106 109 2 0.83333333333333 0.0085720000219511 0.010403000005488 0.26014242576773 0.020919999936173
106 110 2 0.83333333333333 0.0085720000219511 0.010403000005488 0.26014242576773 0.020919999936173
106 111 2 0.83333333333333 0.0085720000219511 -0.012487999978049 0.30005468824211 0.069194303392389
107 109 2 0.83333333333333 0.0085720000219511 0.010403000005488 0.26014242576773 0.020919999936173
107 110 2 0.83333333333333 0.0085720000219511 0.010403000005488 0.26014242576773 0.020919999936173
107 111 2 0.83333333333333 0.0085720000219511 -0.012487999978049 0.30005468824211 0.069194303392389
108 115 2 0.83333333333333 -0.023246999994512 0.010026000010976 0.30005468824211 0.069194303392389
108 116 2 0.83333333333333 -0.023246999994512 0.010026000010976 0.30005468824211 0.069194303392389
108 117 2 0.83333333333333 -0.023246999994512 -0.11729000016463 0.33996695084507 0.076288266607901
109 112 2 0.83333333333333 0.010403000005488 0.013659000016463 0.26014242576773 0.020919999936173
109 113 2 0.83333333333333 0.010403000005488 0.013659000016463 0.26014242576773 0.020919999936173
109 114 2 0.83333333333333 0.010403000005488 0.0086839999890244 0.30005468824211 0.069194303392389
110 112 2 0.83333333333333 0.010403000005488 0.013659000016463 0.26014242576773 0.020919999936173
110 113 2 0.83333333333333 0.010403000005488 0.013659000016463 0.26014242576773 0.020919999936173
110 114 2 0.83333333333333 0.010403000005488 0.0086839999890244 0.30005468824211 0.069194303392389
111 118 2 0.83333333333333 -0.012487999978049 0.026626999994512 0.30005468824211 0.069194303392389
111 119 2 0.83333333333333 -0.012487999978049 0.026626999994512 0.30005468824211 0.069194303392389
111 120 2 0.83333333333333 -0.012487999978049 0.026626999994512 0.30005468824211 0.069194303392389
112 115 2 0.83333333333333 0.013659000016463 0.010026000010976 0.26014242576773 0.020919999936173
112 116 2 0.83333333333333 0.013659000016463 0.010026000010976 0.26014242576773 0.020919999936173
112 117 2 0.83333333333333 0.013659000016463 -0.11729000016463 0.30005468824211 0.069194303392389
113 115 2 0.83333333333333 0.013659000016463 0.010026000010976 0.26014242576773 0.020919999936173
113 116 2 0.83333333333333 0.013659000016463 0.010026000010976 0.26014242576773 0.020919999936173
113 117 2 0.83333333333333 0.013659000016463 -0.11729000016463 0.30005468824211 0.069194303392389
115 118 2 0.83333333333333 0.010026000010976 0.026626999994512 0.26014242576773 0.020919999936173
115 119 2 0.83333333333333 0.010026000010976 0.026626999994512 0.26014242576773 0.020919999936173
115 120 2 0.83333333333333 0.010026000010976 0.026626999994512 0.26014242576773 0.020919999936173
116 118 2 0.83333333333333 0.010026000010976 0.026626999994512 0.26014242576773 0.020919999936173
116 119 2 0.83333333333333 0.010026000010976 0.026626999994512 0.26014242576773 0.020919999936173
116 120 2 0.83333333333333 0.010026000010976 0.026626999994512 0.26014242576773 0.020919999936173

[ angles ]
;    ai     aj     ak funct         c0         c1         c2         c3
     41     44     47     1   112.0500483 394.969600
     38     41     44     1   112.0500483 394.969600
     35     38     41     1   112.0500483 394.969600
     32     35     38     1   112.0500483 394.969600
     29     32     35     1   112.0500483 394.969600
     26     29     32     1   112.0500483 394.969600
     24     26     29     1   111.4400476 531.619040
     22     24     26     1   123.4200531 538.313440
     19     22     24     1   123.4200531 538.313440
     16     19     22     1   111.4400476 531.619040
     13     16     19     1   112.0500483 394.969600
     10     13     16     1   112.0500483 394.969600
      7     10     13     1   112.0500483 394.969600
      4      1     51     1   110.5300474 533.794720
      4      7     10     1   112.0500483 394.969600
      1      4      7     1   112.0500483 394.969600
      1     51     52     1   123.1100526 569.275040
      1     51     53     1   111.9600481 579.567680
     70     69     71     1   123.1100526 569.275040
     69     71     74     1   110.5300474 533.794720
     68     69     70     1   123.3300529 635.382240
     68     69     71     1   111.9600481 579.567680
     66     63     67     1   119.9000514 1171.520000
     64     63     66     1   115.2600495 366.434720
     64     63     67     1   115.2600495 366.434720
     62     63     64     1   102.3700438 375.806880
     62     63     66     1   108.2300464 836.800000
     62     63     67     1   108.2300464 836.800000
     59     57     68     1   108.4200467 567.183040
     59     62     63     1   120.5000516 836.800000
     57     59     62     1   108.4200467 567.183040
     57     68     69     1   115.1400492 532.455840
     54     57     59     1   110.6300475 528.941280
     54     57     68     1   108.4200467 567.183040
     53     54     57     1   108.4200467 567.183040
     52     51     53     1   123.3300529 635.382240
     51     53     54     1   115.1400492 532.455840
    111    114    117     1   112.0500483 394.969600
    108    111    114     1   112.0500483 394.969600
    105    108    111     1   112.0500483 394.969600
    102    105    108     1   112.0500483 394.969600
     99    102    105     1   112.0500483 394.969600
     96     99    102     1   112.0500483 394.969600
     94     96     99     1   111.4400476 531.619040
     92     94     96     1   123.4200531 538.313440
     89     92     94     1   123.4200531 538.313440
     86     89     92     1   111.4400476 531.619040
     83     86     89     1   112.0500483 394.969600
     80     83     86     1   112.0500483 394.969600
     77     80     83     1   112.0500483 394.969600
     74     77     80     1   112.0500483 394.969600
     71     74     77     1   112.0500483 394.969600
     49     47     50     1   108.3500467 329.950240
     48     47     49     1   108.3500467 329.950240
     48     47     50     1   108.3500467 329.950240
     46     44     47     1   110.0500475 388.024160
     45     44     46     1   108.3500467 329.950240
     45     44     47     1   110.0500475 388.024160
     44     47     48     1   110.0500475 388.024160
     44     47     49     1   110.0500475 388.024160
     44     47     50     1   110.0500475 388.024160
     43     41     44     1   110.0500475 388.024160
     42     41     43     1   108.3500467 329.950240
     42     41     44     1   110.0500475 388.024160
     41     44     45     1   110.0500475 388.024160
     41     44     46     1   110.0500475 388.024160
     40     38     41     1   110.0500475 388.024160
     39     38     40     1   108.3500467 329.950240
     39     38     41     1   110.0500475 388.024160
     38     41     42     1   110.0500475 388.024160
     38     41     43     1   110.0500475 388.024160
     37     35     38     1   110.0500475 388.024160
     36     35     37     1   108.3500467 329.950240
     36     35     38     1   110.0500475 388.024160
     35     38     39     1   110.0500475 388.024160
     35     38     40     1   110.0500475 388.024160
     34     32     35     1   110.0500475 388.024160
     33     32     34     1   108.3500467 329.950240
     33     32     35     1   110.0500475 388.024160
     32     35     36     1   110.0500475 388.024160
     32     35     37     1   110.0500475 388.024160
     31     29     32     1   110.0500475 388.024160
     30     29     31     1   108.3500467 329.950240
     30     29     32     1   110.0500475 388.024160
     29     32     33     1   110.0500475 388.024160
     29     32     34     1   110.0500475 388.024160
     28     26     29     1   110.0500475 388.024160
     27     26     28     1   108.3500467 329.950240
     27     26     29     1   110.0500475 388.024160
     26     29     30     1   110.0500475 388.024160
     26     29     31     1   110.0500475 388.024160
     25     24     26     1   117.3000503 382.082880
     24     26     27     1   110.4900475 393.547040
     24     26     28     1   110.4900475 393.547040
     23     22     24     1   120.9400517 418.734720
     22     24     25     1   120.9400517 418.734720
     21     19     22     1   110.4900475 393.547040
     20     19     21     1   108.3500467 329.950240
     20     19     22     1   110.4900475 393.547040
     19     22     23     1   117.3000503 382.082880
     18     16     19     1   110.0500475 388.024160
     17     16     18     1   108.3500467 329.950240
     17     16     19     1   110.0500475 388.024160
     16     19     20     1   110.0500475 388.024160
     16     19     21     1   110.0500475 388.024160
     15     13     16     1   110.0500475 388.024160
     14     13     15     1   108.3500467 329.950240
     14     13     16     1   110.0500475 388.024160
     13     16     17     1   110.0500475 388.024160
     13     16     18     1   110.0500475 388.024160
     12     10     13     1   110.0500475 388.024160
     11     10     12     1   108.3500467 329.950240
     11     10     13     1   110.0500475 388.024160
     10     13     14     1   110.0500475 388.024160
     10     13     15     1   110.0500475 388.024160
      9      7     10     1   110.0500475 388.024160
      8      7      9     1   108.3500467 329.950240
      8      7     10     1   110.0500475 388.024160
      7     10     11     1   110.0500475 388.024160
      7     10     12     1   110.0500475 388.024160
      6      4      7     1   110.0500475 388.024160
      5      4      6     1   108.3500467 329.950240
      5      4      7     1   110.0500475 388.024160
      4      7      8     1   110.0500475 388.024160
      4      7      9     1   110.0500475 388.024160
      3      1      4     1   110.0500475 388.024160
      3      1     51     1   109.6800468 394.969600
      2      1      3     1   108.3500467 329.950240
      2      1      4     1   110.0500475 388.024160
      2      1     51     1   109.6800468 394.969600
      1      4      5     1   110.0500475 388.024160
      1      4      6     1   110.0500475 388.024160
     69     71     72     1   109.6800468 394.969600
     69     71     73     1   109.6800468 394.969600
     63     64     65     1   110.1400471 467.603840
     61     59     62     1   108.8200469 425.429120
     60     59     61     1   109.5500472 327.858240
     60     59     62     1   108.8200469 425.429120
     58     57     59     1   110.0700471 387.940480
     58     57     68     1   108.8200469 425.429120
     57     59     60     1   110.0700471 387.940480
     57     59     61     1   110.0700471 387.940480
     56     54     57     1   110.0700471 387.940480
     55     54     56     1   109.5500472 327.858240
     55     54     57     1   110.0700471 387.940480
     54     57     58     1   110.0700471 387.940480
     53     54     55     1   108.8200469 425.429120
     53     54     56     1   108.8200469 425.429120
    119    117    120     1   108.3500467 329.950240
    118    117    119     1   108.3500467 329.950240
    118    117    120     1   108.3500467 329.950240
    116    114    117     1   110.0500475 388.024160
    115    114    116     1   108.3500467 329.950240
    115    114    117     1   110.0500475 388.024160
    114    117    118     1   110.0500475 388.024160
    114    117    119     1   110.0500475 388.024160
    114    117    120     1   110.0500475 388.024160
    113    111    114     1   110.0500475 388.024160
    112    111    113     1   108.3500467 329.950240
    112    111    114     1   110.0500475 388.024160
    111    114    115     1   110.0500475 388.024160
    111    114    116     1   110.0500475 388.024160
    110    108    111     1   110.0500475 388.024160
    109    108    110     1   108.3500467 329.950240
    109    108    111     1   110.0500475 388.024160
    108    111    112     1   110.0500475 388.024160
    108    111    113     1   110.0500475 388.024160
    107    105    108     1   110.0500475 388.024160
    106    105    107     1   108.3500467 329.950240
    106    105    108     1   110.0500475 388.024160
    105    108    109     1   110.0500475 388.024160
    105    108    110     1   110.0500475 388.024160
    104    102    105     1   110.0500475 388.024160
    103    102    104     1   108.3500467 329.950240
    103    102    105     1   110.0500475 388.024160
    102    105    106     1   110.0500475 388.024160
    102    105    107     1   110.0500475 388.024160
    101     99    102     1   110.0500475 388.024160
    100     99    101     1   108.3500467 329.950240
    100     99    102     1   110.0500475 388.024160
     99    102    103     1   110.0500475 388.024160
     99    102    104     1   110.0500475 388.024160
     98     96     99     1   110.0500475 388.024160
     97     96     98     1   108.3500467 329.950240
     97     96     99     1   110.0500475 388.024160
     96     99    100     1   110.0500475 388.024160
     96     99    101     1   110.0500475 388.024160
     95     94     96     1   117.3000503 382.082880
     94     96     97     1   110.4900475 393.547040
     94     96     98     1   110.4900475 393.547040
     93     92     94     1   120.9400517 418.734720
     92     94     95     1   120.9400517 418.734720
     91     89     92     1   110.4900475 393.547040
     90     89     91     1   108.3500467 329.950240
     90     89     92     1   110.4900475 393.547040
     89     92     93     1   117.3000503 382.082880
     88     86     89     1   110.0500475 388.024160
     87     86     88     1   108.3500467 329.950240
     87     86     89     1   110.0500475 388.024160
     86     89     90     1   110.0500475 388.024160
     86     89     91     1   110.0500475 388.024160
     85     83     86     1   110.0500475 388.024160
     84     83     85     1   108.3500467 329.950240
     84     83     86     1   110.0500475 388.024160
     83     86     87     1   110.0500475 388.024160
     83     86     88     1   110.0500475 388.024160
     82     80     83     1   110.0500475 388.024160
     81     80     82     1   108.3500467 329.950240
     81     80     83     1   110.0500475 388.024160
     80     83     84     1   110.0500475 388.024160
     80     83     85     1   110.0500475 388.024160
     79     77     80     1   110.0500475 388.024160
     78     77     79     1   108.3500467 329.950240
     78     77     80     1   110.0500475 388.024160
     77     80     81     1   110.0500475 388.024160
     77     80     82     1   110.0500475 388.024160
     76     74     77     1   110.0500475 388.024160
     75     74     76     1   108.3500467 329.950240
     75     74     77     1   110.0500475 388.024160
     74     77     78     1   110.0500475 388.024160
     74     77     79     1   110.0500475 388.024160
     73     71     74     1   110.0500475 388.024160
     72     71     73     1   108.3500467 329.950240
     72     71     74     1   110.0500475 388.024160
     71     74     75     1   110.0500475 388.024160
     71     74     76     1   110.0500475 388.024160


[ dihedrals ]
;    ai     aj     ak     al funct         c0         c1         c2         c3         c4         c5
     38     41     44     47     1  0.0000000  0.4184000  1
     38     41     44     47     1  0.0000000  0.4184000  2
     38     41     44     47     1  0.0000000  1.2552000  3
     38     41     44     47     1  0.0000000  0.4184000  4
     38     41     44     47     1  0.0000000  0.4184000  5
     35     38     41     44     1  0.0000000  0.4184000  1
     35     38     41     44     1  0.0000000  0.4184000  2
     35     38     41     44     1  0.0000000  1.2552000  3
     35     38     41     44     1  0.0000000  0.4184000  4
     35     38     41     44     1  0.0000000  0.4184000  5
     32     35     38     41     1  0.0000000  0.4184000  1
     32     35     38     41     1  0.0000000  0.4184000  2
     32     35     38     41     1  0.0000000  1.2552000  3
     32     35     38     41     1  0.0000000  0.4184000  4
     32     35     38     41     1  0.0000000  0.4184000  5
     29     32     35     38     1  0.0000000  0.4184000  1
     29     32     35     38     1  0.0000000  0.4184000  2
     29     32     35     38     1  0.0000000  1.2552000  3
     29     32     35     38     1  0.0000000  0.4184000  4
     29     32     35     38     1  0.0000000  0.4184000  5
     26     29     32     35     1  0.0000000  0.4184000  1
     26     29     32     35     1  0.0000000  0.4184000  2
     26     29     32     35     1  0.0000000  1.2552000  3
     26     29     32     35     1  0.0000000  0.4184000  4
     26     29     32     35     1  0.0000000  0.4184000  5
     24     26     29     32     1  0.0000000  0.0000000  1
     24     26     29     32     1  0.0000000  0.0000000  2
     24     26     29     32     1  0.0000000  2.0920000  3
     24     26     29     32     1  0.0000000  0.0000000  4
     24     26     29     32     1  0.0000000  0.4184000  5
     22     24     26     29     1  0.0000000  2.5104000  1
     22     24     26     29     1  180.0000771  1.6736000  2
     22     24     26     29     1  180.0000771  1.6736000  3
     22     24     26     29     1  180.0000771  0.8368000  4
     22     24     26     29     1  180.0000771  0.8368000  5
     19     22     24     26     1  180.0000771  7.1128000  1
     19     22     24     26     1  180.0000771  13.8072000  2
     19     22     24     26     1  0.0000000  2.5104000  3
     19     22     24     26     1  0.0000000  0.0000000  4
     19     22     24     26     1  0.0000000  0.0000000  5
     16     19     22     24     1  0.0000000  2.5104000  1
     16     19     22     24     1  180.0000771  1.6736000  2
     16     19     22     24     1  180.0000771  1.6736000  3
     16     19     22     24     1  180.0000771  0.8368000  4
     16     19     22     24     1  180.0000771  0.8368000  5
     13     16     19     22     1  0.0000000  0.0000000  1
     13     16     19     22     1  0.0000000  0.0000000  2
     13     16     19     22     1  0.0000000  2.0920000  3
     13     16     19     22     1  0.0000000  0.0000000  4
     13     16     19     22     1  0.0000000  0.4184000  5
     10     13     16     19     1  0.0000000  0.4184000  1
     10     13     16     19     1  0.0000000  0.4184000  2
     10     13     16     19     1  0.0000000  1.2552000  3
     10     13     16     19     1  0.0000000  0.4184000  4
     10     13     16     19     1  0.0000000  0.4184000  5
     51      1      4      7     1  0.0000000  0.6527040  3
      7     10     13     16     1  0.0000000  0.4184000  1
      7     10     13     16     1  0.0000000  0.4184000  2
      7     10     13     16     1  0.0000000  1.2552000  3
      7     10     13     16     1  0.0000000  0.4184000  4
      7     10     13     16     1  0.0000000  0.4184000  5
      4      1     51     52     1  180.0000771  0.0000000  2
      4      1     51     53     1  180.0000771  0.0000000  2
      4      7     10     13     1  0.0000000  0.4184000  1
      4      7     10     13     1  0.0000000  0.4184000  2
      4      7     10     13     1  0.0000000  1.2552000  3
      4      7     10     13     1  0.0000000  0.4184000  4
      4      7     10     13     1  0.0000000  0.4184000  5
      1      4      7     10     1  0.0000000  0.4184000  1
      1      4      7     10     1  0.0000000  0.4184000  2
      1      4      7     10     1  0.0000000  1.2552000  3
      1      4      7     10     1  0.0000000  0.4184000  4
      1      4      7     10     1  0.0000000  0.4184000  5
      1     51     53     54     1  180.0000771  11.2968000  2
     70     69     71     74     1  180.0000771  0.0000000  2
     69     71     74     77     1  0.0000000  0.6527040  3
     68     69     71     74     1  180.0000771  0.0000000  2
     62     59     57     68     1  0.0000000  0.0000000  1
     62     59     57     68     1  0.0000000  0.0000000  2
     62     59     57     68     1  0.0000000  0.0000000  3
     62     59     57     68     1  0.0000000  0.0000000  4
     62     59     57     68     1  0.0000000  0.0000000  5
     59     57     68     69     1  0.0000000  -0.4184000  1
     59     57     68     69     1  240.0001029  -1.2552000  2
     59     57     68     69     1  300.0001286  -0.8368000  3
     59     62     63     64     1  0.0000000  5.0208000  2
     59     62     63     64     1  0.0000000  1.0460000  3
     59     62     63     66     1  0.0000000  0.0000000  1
     59     62     63     66     1  0.0000000  0.8368000  2
     59     62     63     66     1  0.0000000  0.0000000  3
     59     62     63     66     1  0.0000000  0.0000000  4
     59     62     63     66     1  0.0000000  0.0000000  5
     59     62     63     67     1  0.0000000  0.0000000  1
     59     62     63     67     1  0.0000000  0.8368000  2
     59     62     63     67     1  0.0000000  0.0000000  3
     59     62     63     67     1  0.0000000  0.0000000  4
     59     62     63     67     1  0.0000000  0.0000000  5
     57     59     62     63     1  180.0000771  -3.3472000  2
     57     59     62     63     1  0.0000000  0.0000000  3
     57     68     69     70     1  180.0000771  5.8576000  1
     57     68     69     70     1  180.0000771  11.2968000  2
     57     68     69     71     1  180.0000771  11.2968000  2
     54     57     59     62     1  180.0000771  3.3472000  1
     54     57     59     62     1  120.0000514  0.8368000  2
     54     57     59     62     1  60.0000257  1.6736000  3
     54     57     68     69     1  0.0000000  -0.4184000  1
     54     57     68     69     1  240.0001029  -1.2552000  2
     54     57     68     69     1  300.0001286  -0.8368000  3
     53     54     57     59     1  0.0000000  0.0000000  1
     53     54     57     59     1  0.0000000  0.0000000  2
     53     54     57     59     1  0.0000000  0.0000000  3
     53     54     57     59     1  0.0000000  0.0000000  4
     53     54     57     59     1  0.0000000  0.0000000  5
     53     54     57     68     1  180.0000771  -0.4184000  1
     53     54     57     68     1  0.0000000  1.2552000  2
     53     54     57     68     1  0.0000000  4.1840000  3
     52     51     53     54     1  180.0000771  5.8576000  1
     52     51     53     54     1  180.0000771  11.2968000  2
     51     53     54     57     1  0.0000000  -0.4184000  1
     51     53     54     57     1  240.0001029  -1.2552000  2
     51     53     54     57     1  300.0001286  -0.8368000  3
    108    111    114    117     1  0.0000000  0.4184000  1
    108    111    114    117     1  0.0000000  0.4184000  2
    108    111    114    117     1  0.0000000  1.2552000  3
    108    111    114    117     1  0.0000000  0.4184000  4
    108    111    114    117     1  0.0000000  0.4184000  5
    105    108    111    114     1  0.0000000  0.4184000  1
    105    108    111    114     1  0.0000000  0.4184000  2
    105    108    111    114     1  0.0000000  1.2552000  3
    105    108    111    114     1  0.0000000  0.4184000  4
    105    108    111    114     1  0.0000000  0.4184000  5
    102    105    108    111     1  0.0000000  0.4184000  1
    102    105    108    111     1  0.0000000  0.4184000  2
    102    105    108    111     1  0.0000000  1.2552000  3
    102    105    108    111     1  0.0000000  0.4184000  4
    102    105    108    111     1  0.0000000  0.4184000  5
     99    102    105    108     1  0.0000000  0.4184000  1
     99    102    105    108     1  0.0000000  0.4184000  2
     99    102    105    108     1  0.0000000  1.2552000  3
     99    102    105    108     1  0.0000000  0.4184000  4
     99    102    105    108     1  0.0000000  0.4184000  5
     96     99    102    105     1  0.0000000  0.4184000  1
     96     99    102    105     1  0.0000000  0.4184000  2
     96     99    102    105     1  0.0000000  1.2552000  3
     96     99    102    105     1  0.0000000  0.4184000  4
     96     99    102    105     1  0.0000000  0.4184000  5
     94     96     99    102     1  0.0000000  0.0000000  1
     94     96     99    102     1  0.0000000  0.0000000  2
     94     96     99    102     1  0.0000000  2.0920000  3
     94     96     99    102     1  0.0000000  0.0000000  4
     94     96     99    102     1  0.0000000  0.4184000  5
     92     94     96     99     1  0.0000000  2.5104000  1
     92     94     96     99     1  180.0000771  1.6736000  2
     92     94     96     99     1  180.0000771  1.6736000  3
     92     94     96     99     1  180.0000771  0.8368000  4
     92     94     96     99     1  180.0000771  0.8368000  5
     89     92     94     96     1  180.0000771  7.1128000  1
     89     92     94     96     1  180.0000771  13.8072000  2
     89     92     94     96     1  0.0000000  2.5104000  3
     89     92     94     96     1  0.0000000  0.0000000  4
     89     92     94     96     1  0.0000000  0.0000000  5
     86     89     92     94     1  0.0000000  2.5104000  1
     86     89     92     94     1  180.0000771  1.6736000  2
     86     89     92     94     1  180.0000771  1.6736000  3
     86     89     92     94     1  180.0000771  0.8368000  4
     86     89     92     94     1  180.0000771  0.8368000  5
     83     86     89     92     1  0.0000000  0.0000000  1
     83     86     89     92     1  0.0000000  0.0000000  2
     83     86     89     92     1  0.0000000  2.0920000  3
     83     86     89     92     1  0.0000000  0.0000000  4
     83     86     89     92     1  0.0000000  0.4184000  5
     80     83     86     89     1  0.0000000  0.4184000  1
     80     83     86     89     1  0.0000000  0.4184000  2
     80     83     86     89     1  0.0000000  1.2552000  3
     80     83     86     89     1  0.0000000  0.4184000  4
     80     83     86     89     1  0.0000000  0.4184000  5
     77     80     83     86     1  0.0000000  0.4184000  1
     77     80     83     86     1  0.0000000  0.4184000  2
     77     80     83     86     1  0.0000000  1.2552000  3
     77     80     83     86     1  0.0000000  0.4184000  4
     77     80     83     86     1  0.0000000  0.4184000  5
     74     77     80     83     1  0.0000000  0.4184000  1
     74     77     80     83     1  0.0000000  0.4184000  2
     74     77     80     83     1  0.0000000  1.2552000  3
     74     77     80     83     1  0.0000000  0.4184000  4
     74     77     80     83     1  0.0000000  0.4184000  5
     71     74     77     80     1  0.0000000  0.4184000  1
     71     74     77     80     1  0.0000000  0.4184000  2
     71     74     77     80     1  0.0000000  1.2552000  3
     71     74     77     80     1  0.0000000  0.4184000  4
     71     74     77     80     1  0.0000000  0.4184000  5
     71     70     69     68     4  180.0000771  43.9320000  2
      1     52     51     53     4  180.0000771  43.9320000  2
     46     44     47     48     1  0.0000000  0.6276000  3
     46     44     47     49     1  0.0000000  0.6276000  3
     46     44     47     50     1  0.0000000  0.6276000  3
     45     44     47     48     1  0.0000000  0.6276000  3
     45     44     47     49     1  0.0000000  0.6276000  3
     45     44     47     50     1  0.0000000  0.6276000  3
     43     41     44     45     1  0.0000000  0.6276000  3
     43     41     44     46     1  0.0000000  0.6276000  3
     43     41     44     47     1  0.0000000  0.6694400  3
     42     41     44     45     1  0.0000000  0.6276000  3
     42     41     44     46     1  0.0000000  0.6276000  3
     42     41     44     47     1  0.0000000  0.6694400  3
     41     44     47     48     1  0.0000000  0.6694400  3
     41     44     47     49     1  0.0000000  0.6694400  3
     41     44     47     50     1  0.0000000  0.6694400  3
     40     38     41     42     1  0.0000000  0.6276000  3
     40     38     41     43     1  0.0000000  0.6276000  3
     40     38     41     44     1  0.0000000  0.6694400  3
     39     38     41     42     1  0.0000000  0.6276000  3
     39     38     41     43     1  0.0000000  0.6276000  3
     39     38     41     44     1  0.0000000  0.6694400  3
     38     41     44     45     1  0.0000000  0.6694400  3
     38     41     44     46     1  0.0000000  0.6694400  3
     37     35     38     39     1  0.0000000  0.6276000  3
     37     35     38     40     1  0.0000000  0.6276000  3
     37     35     38     41     1  0.0000000  0.6694400  3
     36     35     38     39     1  0.0000000  0.6276000  3
     36     35     38     40     1  0.0000000  0.6276000  3
     36     35     38     41     1  0.0000000  0.6694400  3
     35     38     41     42     1  0.0000000  0.6694400  3
     35     38     41     43     1  0.0000000  0.6694400  3
     34     32     35     36     1  0.0000000  0.6276000  3
     34     32     35     37     1  0.0000000  0.6276000  3
     34     32     35     38     1  0.0000000  0.6694400  3
     33     32     35     36     1  0.0000000  0.6276000  3
     33     32     35     37     1  0.0000000  0.6276000  3
     33     32     35     38     1  0.0000000  0.6694400  3
     32     35     38     39     1  0.0000000  0.6694400  3
     32     35     38     40     1  0.0000000  0.6694400  3
     31     29     32     33     1  0.0000000  0.6276000  3
     31     29     32     34     1  0.0000000  0.6276000  3
     31     29     32     35     1  0.0000000  0.6694400  3
     30     29     32     33     1  0.0000000  0.6276000  3
     30     29     32     34     1  0.0000000  0.6276000  3
     30     29     32     35     1  0.0000000  0.6694400  3
     29     32     35     36     1  0.0000000  0.6694400  3
     29     32     35     37     1  0.0000000  0.6694400  3
     28     26     29     30     1  0.0000000  0.6276000  3
     28     26     29     31     1  0.0000000  0.6276000  3
     28     26     29     32     1  0.0000000  0.6694400  3
     27     26     29     30     1  0.0000000  0.6276000  3
     27     26     29     31     1  0.0000000  0.6276000  3
     27     26     29     32     1  0.0000000  0.6694400  3
     26     29     32     33     1  0.0000000  0.6694400  3
     26     29     32     34     1  0.0000000  0.6694400  3
     25     24     26     27     1  0.0000000  0.0000000  2
     25     24     26     28     1  0.0000000  0.0000000  2
     25     24     26     29     1  0.0000000  0.0000000  2
     24     26     29     30     1  0.0000000  0.6510304  3
     24     26     29     31     1  0.0000000  0.6510304  3
     23     22     24     25     1  180.0000771  27.8236000  2
     23     22     24     26     1  180.0000771  27.8236000  2
     22     24     26     27     1  0.0000000  4.8116000  1
     22     24     26     27     1  180.0000771  1.5899200  3
     22     24     26     28     1  0.0000000  4.8116000  1
     22     24     26     28     1  180.0000771  1.5899200  3
     21     19     22     23     1  0.0000000  0.0000000  2
     21     19     22     24     1  0.0000000  4.8116000  1
     21     19     22     24     1  180.0000771  1.5899200  3
     20     19     22     23     1  0.0000000  0.0000000  2
     20     19     22     24     1  0.0000000  4.8116000  1
     20     19     22     24     1  180.0000771  1.5899200  3
     19     22     24     25     1  180.0000771  27.8236000  2
     18     16     19     20     1  0.0000000  0.6276000  3
     18     16     19     21     1  0.0000000  0.6276000  3
     18     16     19     22     1  0.0000000  0.6510304  3
     17     16     19     20     1  0.0000000  0.6276000  3
     17     16     19     21     1  0.0000000  0.6276000  3
     17     16     19     22     1  0.0000000  0.6510304  3
     16     19     22     23     1  0.0000000  0.0000000  2
     15     13     16     17     1  0.0000000  0.6276000  3
     15     13     16     18     1  0.0000000  0.6276000  3
     15     13     16     19     1  0.0000000  0.6694400  3
     14     13     16     17     1  0.0000000  0.6276000  3
     14     13     16     18     1  0.0000000  0.6276000  3
     14     13     16     19     1  0.0000000  0.6694400  3
     13     16     19     20     1  0.0000000  0.6694400  3
     13     16     19     21     1  0.0000000  0.6694400  3
     12     10     13     14     1  0.0000000  0.6276000  3
     12     10     13     15     1  0.0000000  0.6276000  3
     12     10     13     16     1  0.0000000  0.6694400  3
     11     10     13     14     1  0.0000000  0.6276000  3
     11     10     13     15     1  0.0000000  0.6276000  3
     11     10     13     16     1  0.0000000  0.6694400  3
     10     13     16     17     1  0.0000000  0.6694400  3
     10     13     16     18     1  0.0000000  0.6694400  3
      9      7     10     11     1  0.0000000  0.6276000  3
      9      7     10     12     1  0.0000000  0.6276000  3
      9      7     10     13     1  0.0000000  0.6694400  3
      8      7     10     11     1  0.0000000  0.6276000  3
      8      7     10     12     1  0.0000000  0.6276000  3
      8      7     10     13     1  0.0000000  0.6694400  3
      7     10     13     14     1  0.0000000  0.6694400  3
      7     10     13     15     1  0.0000000  0.6694400  3
     51      1      4      6     1  0.0000000  0.6527040  3
      6      4      7      8     1  0.0000000  0.6276000  3
      6      4      7      9     1  0.0000000  0.6276000  3
      6      4      7     10     1  0.0000000  0.6694400  3
     51      1      4      5     1  0.0000000  0.6527040  3
      5      4      7      8     1  0.0000000  0.6276000  3
      5      4      7      9     1  0.0000000  0.6276000  3
      5      4      7     10     1  0.0000000  0.6694400  3
      4      7     10     11     1  0.0000000  0.6694400  3
      4      7     10     12     1  0.0000000  0.6694400  3
      3      1      4      5     1  0.0000000  0.6276000  3
      3      1      4      6     1  0.0000000  0.6276000  3
      3      1      4      7     1  0.0000000  0.6694400  3
      3      1     51     52     1  0.0000000  3.3472000  1
      3      1     51     52     1  180.0000771  0.3347200  3
      3      1     51     53     1  180.0000771  0.0000000  2
      2      1      4      5     1  0.0000000  0.6276000  3
      2      1      4      6     1  0.0000000  0.6276000  3
      2      1      4      7     1  0.0000000  0.6694400  3
      2      1     51     52     1  0.0000000  3.3472000  1
      2      1     51     52     1  180.0000771  0.3347200  3
      2      1     51     53     1  180.0000771  0.0000000  2
      1      4      7      8     1  0.0000000  0.6694400  3
      1      4      7      9     1  0.0000000  0.6694400  3
     70     69     71     72     1  0.0000000  3.3472000  1
     70     69     71     72     1  180.0000771  0.3347200  3
     70     69     71     73     1  0.0000000  3.3472000  1
     70     69     71     73     1  180.0000771  0.3347200  3
     69     71     74     75     1  0.0000000  0.6527040  3
     69     71     74     76     1  0.0000000  0.6527040  3
     68     69     71     72     1  180.0000771  0.0000000  2
     68     69     71     73     1  180.0000771  0.0000000  2
     65     64     63     66     1  0.0000000  2.2313272  3
     65     64     63     67     1  0.0000000  2.2313272  3
     62     63     64     65     1  0.0000000  2.2313272  3
     61     59     57     68     1  0.0000000  1.0460000  1
     61     59     57     68     1  0.0000000  0.0000000  3
     61     59     62     63     1  0.0000000  0.0000000  1
     61     59     62     63     1  0.0000000  0.0000000  2
     61     59     62     63     1  0.0000000  1.6024720  3
     61     59     62     63     1  0.0000000  0.0000000  4
     61     59     62     63     1  0.0000000  0.0000000  5
     60     59     57     68     1  0.0000000  1.0460000  1
     60     59     57     68     1  0.0000000  0.0000000  3
     60     59     62     63     1  0.0000000  0.0000000  1
     60     59     62     63     1  0.0000000  0.0000000  2
     60     59     62     63     1  0.0000000  1.6024720  3
     60     59     62     63     1  0.0000000  0.0000000  4
     60     59     62     63     1  0.0000000  0.0000000  5
     58     57     59     60     1  0.0000000  0.6527040  3
     58     57     59     61     1  0.0000000  0.6527040  3
     58     57     59     62     1  0.0000000  1.0460000  1
     58     57     59     62     1  0.0000000  0.0000000  3
     58     57     68     69     1  0.0000000  1.6024720  3
     56     54     57     58     1  0.0000000  0.6527040  3
     56     54     57     59     1  0.0000000  0.6527040  3
     56     54     57     68     1  0.0000000  1.0460000  1
     56     54     57     68     1  0.0000000  0.0000000  3
     55     54     57     58     1  0.0000000  0.6527040  3
     55     54     57     59     1  0.0000000  0.6527040  3
     55     54     57     68     1  0.0000000  1.0460000  1
     55     54     57     68     1  0.0000000  0.0000000  3
     54     57     59     60     1  0.0000000  0.6527040  3
     54     57     59     61     1  0.0000000  0.6527040  3
     53     54     57     58     1  0.0000000  1.0460000  1
     53     54     57     58     1  0.0000000  0.0000000  3
     51     53     54     55     1  0.0000000  1.6024720  3
     51     53     54     56     1  0.0000000  1.6024720  3
    116    114    117    118     1  0.0000000  0.6276000  3
    116    114    117    119     1  0.0000000  0.6276000  3
    116    114    117    120     1  0.0000000  0.6276000  3
    115    114    117    118     1  0.0000000  0.6276000  3
    115    114    117    119     1  0.0000000  0.6276000  3
    115    114    117    120     1  0.0000000  0.6276000  3
    113    111    114    115     1  0.0000000  0.6276000  3
    113    111    114    116     1  0.0000000  0.6276000  3
    113    111    114    117     1  0.0000000  0.6694400  3
    112    111    114    115     1  0.0000000  0.6276000  3
    112    111    114    116     1  0.0000000  0.6276000  3
    112    111    114    117     1  0.0000000  0.6694400  3
    111    114    117    118     1  0.0000000  0.6694400  3
    111    114    117    119     1  0.0000000  0.6694400  3
    111    114    117    120     1  0.0000000  0.6694400  3
    110    108    111    112     1  0.0000000  0.6276000  3
    110    108    111    113     1  0.0000000  0.6276000  3
    110    108    111    114     1  0.0000000  0.6694400  3
    109    108    111    112     1  0.0000000  0.6276000  3
    109    108    111    113     1  0.0000000  0.6276000  3
    109    108    111    114     1  0.0000000  0.6694400  3
    108    111    114    115     1  0.0000000  0.6694400  3
    108    111    114    116     1  0.0000000  0.6694400  3
    107    105    108    109     1  0.0000000  0.6276000  3
    107    105    108    110     1  0.0000000  0.6276000  3
    107    105    108    111     1  0.0000000  0.6694400  3
    106    105    108    109     1  0.0000000  0.6276000  3
    106    105    108    110     1  0.0000000  0.6276000  3
    106    105    108    111     1  0.0000000  0.6694400  3
    105    108    111    112     1  0.0000000  0.6694400  3
    105    108    111    113     1  0.0000000  0.6694400  3
    104    102    105    106     1  0.0000000  0.6276000  3
    104    102    105    107     1  0.0000000  0.6276000  3
    104    102    105    108     1  0.0000000  0.6694400  3
    103    102    105    106     1  0.0000000  0.6276000  3
    103    102    105    107     1  0.0000000  0.6276000  3
    103    102    105    108     1  0.0000000  0.6694400  3
    102    105    108    109     1  0.0000000  0.6694400  3
    102    105    108    110     1  0.0000000  0.6694400  3
    101     99    102    103     1  0.0000000  0.6276000  3
    101     99    102    104     1  0.0000000  0.6276000  3
    101     99    102    105     1  0.0000000  0.6694400  3
    100     99    102    103     1  0.0000000  0.6276000  3
    100     99    102    104     1  0.0000000  0.6276000  3
    100     99    102    105     1  0.0000000  0.6694400  3
     99    102    105    106     1  0.0000000  0.6694400  3
     99    102    105    107     1  0.0000000  0.6694400  3
     98     96     99    100     1  0.0000000  0.6276000  3
     98     96     99    101     1  0.0000000  0.6276000  3
     98     96     99    102     1  0.0000000  0.6694400  3
     97     96     99    100     1  0.0000000  0.6276000  3
     97     96     99    101     1  0.0000000  0.6276000  3
     97     96     99    102     1  0.0000000  0.6694400  3
     96     99    102    103     1  0.0000000  0.6694400  3
     96     99    102    104     1  0.0000000  0.6694400  3
     95     94     96     97     1  0.0000000  0.0000000  2
     95     94     96     98     1  0.0000000  0.0000000  2
     95     94     96     99     1  0.0000000  0.0000000  2
     94     96     99    100     1  0.0000000  0.6510304  3
     94     96     99    101     1  0.0000000  0.6510304  3
     93     92     94     95     1  180.0000771  27.8236000  2
     93     92     94     96     1  180.0000771  27.8236000  2
     92     94     96     97     1  0.0000000  4.8116000  1
     92     94     96     97     1  180.0000771  1.5899200  3
     92     94     96     98     1  0.0000000  4.8116000  1
     92     94     96     98     1  180.0000771  1.5899200  3
     91     89     92     93     1  0.0000000  0.0000000  2
     91     89     92     94     1  0.0000000  4.8116000  1
     91     89     92     94     1  180.0000771  1.5899200  3
     90     89     92     93     1  0.0000000  0.0000000  2
     90     89     92     94     1  0.0000000  4.8116000  1
     90     89     92     94     1  180.0000771  1.5899200  3
     89     92     94     95     1  180.0000771  27.8236000  2
     88     86     89     90     1  0.0000000  0.6276000  3
     88     86     89     91     1  0.0000000  0.6276000  3
     88     86     89     92     1  0.0000000  0.6510304  3
     87     86     89     90     1  0.0000000  0.6276000  3
     87     86     89     91     1  0.0000000  0.6276000  3
     87     86     89     92     1  0.0000000  0.6510304  3
     86     89     92     93     1  0.0000000  0.0000000  2
     85     83     86     87     1  0.0000000  0.6276000  3
     85     83     86     88     1  0.0000000  0.6276000  3
     85     83     86     89     1  0.0000000  0.6694400  3
     84     83     86     87     1  0.0000000  0.6276000  3
     84     83     86     88     1  0.0000000  0.6276000  3
     84     83     86     89     1  0.0000000  0.6694400  3
     83     86     89     90     1  0.0000000  0.6694400  3
     83     86     89     91     1  0.0000000  0.6694400  3
     82     80     83     84     1  0.0000000  0.6276000  3
     82     80     83     85     1  0.0000000  0.6276000  3
     82     80     83     86     1  0.0000000  0.6694400  3
     81     80     83     84     1  0.0000000  0.6276000  3
     81     80     83     85     1  0.0000000  0.6276000  3
     81     80     83     86     1  0.0000000  0.6694400  3
     80     83     86     87     1  0.0000000  0.6694400  3
     80     83     86     88     1  0.0000000  0.6694400  3
     79     77     80     81     1  0.0000000  0.6276000  3
     79     77     80     82     1  0.0000000  0.6276000  3
     79     77     80     83     1  0.0000000  0.6694400  3
     78     77     80     81     1  0.0000000  0.6276000  3
     78     77     80     82     1  0.0000000  0.6276000  3
     78     77     80     83     1  0.0000000  0.6694400  3
     77     80     83     84     1  0.0000000  0.6694400  3
     77     80     83     85     1  0.0000000  0.6694400  3
     76     74     77     78     1  0.0000000  0.6276000  3
     76     74     77     79     1  0.0000000  0.6276000  3
     76     74     77     80     1  0.0000000  0.6694400  3
     75     74     77     78     1  0.0000000  0.6276000  3
     75     74     77     79     1  0.0000000  0.6276000  3
     75     74     77     80     1  0.0000000  0.6694400  3
     74     77     80     81     1  0.0000000  0.6694400  3
     74     77     80     82     1  0.0000000  0.6694400  3
     73     71     74     75     1  0.0000000  0.6276000  3
     73     71     74     76     1  0.0000000  0.6276000  3
     73     71     74     77     1  0.0000000  0.6694400  3
     72     71     74     75     1  0.0000000  0.6276000  3
     72     71     74     76     1  0.0000000  0.6276000  3
     72     71     74     77     1  0.0000000  0.6694400  3
     71     74     77     78     1  0.0000000  0.6694400  3
     71     74     77     79     1  0.0000000  0.6694400  3
     22     26     24     25     4  180.0000771  4.6024000  2
     24     19     22     23     4  180.0000771  4.6024000  2
     92     96     94     95     4  180.0000771  4.6024000  2
     94     89     92     93     4  180.0000771  4.6024000  2
