; Exact Amber Lipid21 v1.0 topology converted by ParmEd
; Explicit [pairs] preserve Lipid21-specific 1-4 scaling.

[ moleculetype ]
; Name nrexcl
DOPC 3

[ atoms ]
; nr type resnr residue atom cgnr charge mass
1 L21_cD 1 DOPC C2X 1 -0.14341800 12.010000
2 L21_hL 1 DOPC H2X 2 0.04286100 1.008000
3 L21_hL 1 DOPC H2Y 3 0.04286100 1.008000
4 L21_cD 1 DOPC C3X 4 0.00161900 12.010000
5 L21_hL 1 DOPC H3X 5 0.01952900 1.008000
6 L21_hL 1 DOPC H3Y 6 0.01952900 1.008000
7 L21_cD 1 DOPC C4X 7 -0.02296000 12.010000
8 L21_hL 1 DOPC H4X 8 0.01813400 1.008000
9 L21_hL 1 DOPC H4Y 9 0.01813400 1.008000
10 L21_cD 1 DOPC C5X 10 -0.01669200 12.010000
11 L21_hL 1 DOPC H5X 11 0.00869000 1.008000
12 L21_hL 1 DOPC H5Y 12 0.00869000 1.008000
13 L21_cD 1 DOPC C6X 13 -0.02378900 12.010000
14 L21_hL 1 DOPC H6X 14 0.00926600 1.008000
15 L21_hL 1 DOPC H6Y 15 0.00926600 1.008000
16 L21_cD 1 DOPC C7X 16 -0.01749500 12.010000
17 L21_hL 1 DOPC H7X 17 0.01959800 1.008000
18 L21_hL 1 DOPC H7Y 18 0.01959800 1.008000
19 L21_cD 1 DOPC C8X 19 0.03177500 12.010000
20 L21_hL 1 DOPC H8X 20 0.03268500 1.008000
21 L21_hL 1 DOPC H8Y 21 0.03268500 1.008000
22 L21_cB 1 DOPC C9X 22 -0.24422800 12.010000
23 L21_hB 1 DOPC H9X 23 0.13151200 1.008000
24 L21_cB 1 DOPC C10X 24 -0.23928400 12.010000
25 L21_hB 1 DOPC H10X 25 0.12687800 1.008000
26 L21_cD 1 DOPC C11X 26 0.02905900 12.010000
27 L21_hL 1 DOPC H11X 27 0.03353100 1.008000
28 L21_hL 1 DOPC H11Y 28 0.03353100 1.008000
29 L21_cD 1 DOPC C12X 29 -0.02635300 12.010000
30 L21_hL 1 DOPC H12X 30 0.01971700 1.008000
31 L21_hL 1 DOPC H12Y 31 0.01971700 1.008000
32 L21_cD 1 DOPC C13X 32 -0.01825700 12.010000
33 L21_hL 1 DOPC H13X 33 0.01380000 1.008000
34 L21_hL 1 DOPC H13Y 34 0.01380000 1.008000
35 L21_cD 1 DOPC C14X 35 -0.02484900 12.010000
36 L21_hL 1 DOPC H14X 36 0.00857200 1.008000
37 L21_hL 1 DOPC H14Y 37 0.00857200 1.008000
38 L21_cD 1 DOPC C15X 38 -0.02324700 12.010000
39 L21_hL 1 DOPC H15X 39 0.01040300 1.008000
40 L21_hL 1 DOPC H15Y 40 0.01040300 1.008000
41 L21_cD 1 DOPC C16X 41 -0.01248800 12.010000
42 L21_hL 1 DOPC H16X 42 0.01365900 1.008000
43 L21_hL 1 DOPC H16Y 43 0.01365900 1.008000
44 L21_cD 1 DOPC C17X 44 0.00868400 12.010000
45 L21_hL 1 DOPC H17X 45 0.01002600 1.008000
46 L21_hL 1 DOPC H17Y 46 0.01002600 1.008000
47 L21_cD 1 DOPC C18X 47 -0.11729000 12.010000
48 L21_hL 1 DOPC H18X 48 0.02662700 1.008000
49 L21_hL 1 DOPC H18Y 49 0.02662700 1.008000
50 L21_hL 1 DOPC H18Z 50 0.02662700 1.008000
51 L21_cC 1 DOPC C11 51 0.91040300 12.010000
52 L21_oC 1 DOPC O12 52 -0.67156600 16.000000
53 L21_oS 1 DOPC O11 53 -0.57548900 16.000000
54 L21_cA 1 DOPC C1 54 0.19693900 12.010000
55 L21_hE 1 DOPC HR 55 0.07046900 1.008000
56 L21_hE 1 DOPC HS 56 0.07046900 1.008000
57 L21_cA 1 DOPC C2 57 0.28124200 12.010000
58 L21_hE 1 DOPC HX 58 0.06325300 1.008000
59 L21_cA 1 DOPC C3 59 0.01745900 12.010000
60 L21_hE 1 DOPC HA 60 0.09559100 1.008000
61 L21_hE 1 DOPC HB 61 0.09559100 1.008000
62 L21_oT 1 DOPC O31 62 -0.50948000 16.000000
63 L21_pA 1 DOPC P31 63 1.33972100 30.970000
64 L21_oT 1 DOPC O32 64 -0.50817600 16.000000
65 L21_cA 1 DOPC C31 65 0.16680100 12.010000
66 L21_hE 1 DOPC H1A 66 0.07853400 1.008000
67 L21_hE 1 DOPC H1B 67 0.07853400 1.008000
68 L21_cA 1 DOPC C32 68 -0.17082400 12.010000
69 L21_hX 1 DOPC H2A 69 0.13641500 1.008000
70 L21_hX 1 DOPC H2B 70 0.13641500 1.008000
71 L21_nA 1 DOPC N31 71 0.24526200 14.010000
72 L21_cA 1 DOPC C33 72 -0.33897300 12.010000
73 L21_hX 1 DOPC H3A 73 0.17223000 1.008000
74 L21_hX 1 DOPC H3B 74 0.17223000 1.008000
75 L21_hX 1 DOPC H3C 75 0.17223000 1.008000
76 L21_cA 1 DOPC C34 76 -0.33897300 12.010000
77 L21_hX 1 DOPC H4A 77 0.17223000 1.008000
78 L21_hX 1 DOPC H4B 78 0.17223000 1.008000
79 L21_hX 1 DOPC H4C 79 0.17223000 1.008000
80 L21_cA 1 DOPC C35 80 -0.33897300 12.010000
81 L21_hX 1 DOPC H5A 81 0.17223000 1.008000
82 L21_hX 1 DOPC H5B 82 0.17223000 1.008000
83 L21_hX 1 DOPC H5C 83 0.17223000 1.008000
84 L21_oP 1 DOPC O33 84 -0.87581200 16.000000
85 L21_oP 1 DOPC O34 85 -0.87581200 16.000000
86 L21_oS 1 DOPC O21 86 -0.55294800 16.000000
87 L21_cC 1 DOPC C21 87 0.89761300 12.010000
88 L21_oC 1 DOPC O22 88 -0.67375500 16.000000
89 L21_cD 1 DOPC C2Y 89 -0.14341800 12.010000
90 L21_hL 1 DOPC H2U 90 0.04286100 1.008000
91 L21_hL 1 DOPC H2V 91 0.04286100 1.008000
92 L21_cD 1 DOPC C3Y 92 0.00161900 12.010000
93 L21_hL 1 DOPC H3U 93 0.01952900 1.008000
94 L21_hL 1 DOPC H3V 94 0.01952900 1.008000
95 L21_cD 1 DOPC C4Y 95 -0.02296000 12.010000
96 L21_hL 1 DOPC H4U 96 0.01813400 1.008000
97 L21_hL 1 DOPC H4V 97 0.01813400 1.008000
98 L21_cD 1 DOPC C5Y 98 -0.01669200 12.010000
99 L21_hL 1 DOPC H5U 99 0.00869000 1.008000
100 L21_hL 1 DOPC H5V 100 0.00869000 1.008000
101 L21_cD 1 DOPC C6Y 101 -0.02378900 12.010000
102 L21_hL 1 DOPC H6U 102 0.00926600 1.008000
103 L21_hL 1 DOPC H6V 103 0.00926600 1.008000
104 L21_cD 1 DOPC C7Y 104 -0.01749500 12.010000
105 L21_hL 1 DOPC H7U 105 0.01959800 1.008000
106 L21_hL 1 DOPC H7V 106 0.01959800 1.008000
107 L21_cD 1 DOPC C8Y 107 0.03177500 12.010000
108 L21_hL 1 DOPC H8U 108 0.03268500 1.008000
109 L21_hL 1 DOPC H8V 109 0.03268500 1.008000
110 L21_cB 1 DOPC C9Y 110 -0.24422800 12.010000
111 L21_hB 1 DOPC H9U 111 0.13151200 1.008000
112 L21_cB 1 DOPC C10Y 112 -0.23928400 12.010000
113 L21_hB 1 DOPC H10U 113 0.12687800 1.008000
114 L21_cD 1 DOPC C11Y 114 0.02905900 12.010000
115 L21_hL 1 DOPC H11U 115 0.03353100 1.008000
116 L21_hL 1 DOPC H11V 116 0.03353100 1.008000
117 L21_cD 1 DOPC C12Y 117 -0.02635300 12.010000
118 L21_hL 1 DOPC H12U 118 0.01971700 1.008000
119 L21_hL 1 DOPC H12V 119 0.01971700 1.008000
120 L21_cD 1 DOPC C13Y 120 -0.01825700 12.010000
121 L21_hL 1 DOPC H13U 121 0.01380000 1.008000
122 L21_hL 1 DOPC H13V 122 0.01380000 1.008000
123 L21_cD 1 DOPC C14Y 123 -0.02484900 12.010000
124 L21_hL 1 DOPC H14U 124 0.00857200 1.008000
125 L21_hL 1 DOPC H14V 125 0.00857200 1.008000
126 L21_cD 1 DOPC C15Y 126 -0.02324700 12.010000
127 L21_hL 1 DOPC H15U 127 0.01040300 1.008000
128 L21_hL 1 DOPC H15V 128 0.01040300 1.008000
129 L21_cD 1 DOPC C16Y 129 -0.01248800 12.010000
130 L21_hL 1 DOPC H16U 130 0.01365900 1.008000
131 L21_hL 1 DOPC H16V 131 0.01365900 1.008000
132 L21_cD 1 DOPC C17Y 132 0.00868400 12.010000
133 L21_hL 1 DOPC H17U 133 0.01002600 1.008000
134 L21_hL 1 DOPC H17V 134 0.01002600 1.008000
135 L21_cD 1 DOPC C18Y 135 -0.11729000 12.010000
136 L21_hL 1 DOPC H18U 136 0.02662700 1.008000
137 L21_hL 1 DOPC H18V 137 0.02662700 1.008000
138 L21_hL 1 DOPC H18W 138 0.02662700 1.008000

[ bonds ]
;    ai     aj funct         c0         c1         c2         c3
     44     47     1   0.15350 253634.080000
     41     44     1   0.15350 253634.080000
     38     41     1   0.15350 253634.080000
     35     38     1   0.15350 253634.080000
     32     35     1   0.15350 253634.080000
     29     32     1   0.15350 253634.080000
     26     29     1   0.15350 253634.080000
     24     26     1   0.15080 274721.440000
     22     24     1   0.13240 493460.960000
     19     22     1   0.15080 274721.440000
     16     19     1   0.15350 253634.080000
     13     16     1   0.15350 253634.080000
     10     13     1   0.15350 253634.080000
      7     10     1   0.15350 253634.080000
      4      7     1   0.15350 253634.080000
      1      4     1   0.15350 253634.080000
      1     51     1   0.15080 274721.440000
     87     88     1   0.12140 542246.400000
     87     89     1   0.15080 274721.440000
     86     87     1   0.13430 344175.840000
     71     72     1   0.14990 245684.480000
     71     76     1   0.14990 245684.480000
     71     80     1   0.14990 245684.480000
     68     71     1   0.14990 245684.480000
     65     68     1   0.15350 253634.080000
     64     65     1   0.14390 252295.200000
     63     64     1   0.16100 192464.000000
     63     84     1   0.14800 439320.000000
     63     85     1   0.14800 439320.000000
     62     63     1   0.16100 192464.000000
     59     62     1   0.14390 252295.200000
     57     59     1   0.15350 253634.080000
     57     86     1   0.14390 252295.200000
     54     57     1   0.15350 253634.080000
     53     54     1   0.14390 252295.200000
     51     52     1   0.12140 542246.400000
     51     53     1   0.13430 344175.840000
    132    135     1   0.15350 253634.080000
    129    132     1   0.15350 253634.080000
    126    129     1   0.15350 253634.080000
    123    126     1   0.15350 253634.080000
    120    123     1   0.15350 253634.080000
    117    120     1   0.15350 253634.080000
    114    117     1   0.15350 253634.080000
    112    114     1   0.15080 274721.440000
    110    112     1   0.13240 493460.960000
    107    110     1   0.15080 274721.440000
    104    107     1   0.15350 253634.080000
    101    104     1   0.15350 253634.080000
     98    101     1   0.15350 253634.080000
     95     98     1   0.15350 253634.080000
     92     95     1   0.15350 253634.080000
     89     92     1   0.15350 253634.080000
     47     48     1   0.10920 282252.640000
     47     49     1   0.10920 282252.640000
     47     50     1   0.10920 282252.640000
     44     45     1   0.10920 282252.640000
     44     46     1   0.10920 282252.640000
     41     42     1   0.10920 282252.640000
     41     43     1   0.10920 282252.640000
     38     39     1   0.10920 282252.640000
     38     40     1   0.10920 282252.640000
     35     36     1   0.10920 282252.640000
     35     37     1   0.10920 282252.640000
     32     33     1   0.10920 282252.640000
     32     34     1   0.10920 282252.640000
     29     30     1   0.10920 282252.640000
     29     31     1   0.10920 282252.640000
     26     27     1   0.10920 282252.640000
     26     28     1   0.10920 282252.640000
     24     25     1   0.10870 288110.240000
     22     23     1   0.10870 288110.240000
     19     20     1   0.10920 282252.640000
     19     21     1   0.10920 282252.640000
     16     17     1   0.10920 282252.640000
     16     18     1   0.10920 282252.640000
     13     14     1   0.10920 282252.640000
     13     15     1   0.10920 282252.640000
     10     11     1   0.10920 282252.640000
     10     12     1   0.10920 282252.640000
      7      8     1   0.10920 282252.640000
      7      9     1   0.10920 282252.640000
      4      5     1   0.10920 282252.640000
      4      6     1   0.10920 282252.640000
      1      2     1   0.10920 282252.640000
      1      3     1   0.10920 282252.640000
     80     81     1   0.10910 283424.160000
     80     82     1   0.10910 283424.160000
     80     83     1   0.10910 283424.160000
     76     77     1   0.10910 283424.160000
     76     78     1   0.10910 283424.160000
     76     79     1   0.10910 283424.160000
     72     73     1   0.10910 283424.160000
     72     74     1   0.10910 283424.160000
     72     75     1   0.10910 283424.160000
     68     69     1   0.10910 283424.160000
     68     70     1   0.10910 283424.160000
     65     66     1   0.10930 281081.120000
     65     67     1   0.10930 281081.120000
     59     60     1   0.10930 281081.120000
     59     61     1   0.10930 281081.120000
     57     58     1   0.10930 281081.120000
     54     55     1   0.10930 281081.120000
     54     56     1   0.10930 281081.120000
    135    136     1   0.10920 282252.640000
    135    137     1   0.10920 282252.640000
    135    138     1   0.10920 282252.640000
    132    133     1   0.10920 282252.640000
    132    134     1   0.10920 282252.640000
    129    130     1   0.10920 282252.640000
    129    131     1   0.10920 282252.640000
    126    127     1   0.10920 282252.640000
    126    128     1   0.10920 282252.640000
    123    124     1   0.10920 282252.640000
    123    125     1   0.10920 282252.640000
    120    121     1   0.10920 282252.640000
    120    122     1   0.10920 282252.640000
    117    118     1   0.10920 282252.640000
    117    119     1   0.10920 282252.640000
    114    115     1   0.10920 282252.640000
    114    116     1   0.10920 282252.640000
    112    113     1   0.10870 288110.240000
    110    111     1   0.10870 288110.240000
    107    108     1   0.10920 282252.640000
    107    109     1   0.10920 282252.640000
    104    105     1   0.10920 282252.640000
    104    106     1   0.10920 282252.640000
    101    102     1   0.10920 282252.640000
    101    103     1   0.10920 282252.640000
     98     99     1   0.10920 282252.640000
     98    100     1   0.10920 282252.640000
     95     96     1   0.10920 282252.640000
     95     97     1   0.10920 282252.640000
     92     93     1   0.10920 282252.640000
     92     94     1   0.10920 282252.640000
     89     90     1   0.10920 282252.640000
     89     91     1   0.10920 282252.640000


[ pairs ]
;    ai     aj funct         c0         c1         c2         c3
     38     47     1
     35     44     1
     32     41     1
     29     38     1
     26     35     1
     24     32     1
     22     29     1
     19     26     1
     16     24     1
     13     22     1
     10     19     1
     51      7     1
      7     16     1
      4     52     1
      4     53     1
      4     13     1
      1     10     1
      1     54     1
     88     92     1
     87     95     1
     86     92     1
     65     84     1
     65     85     1
     65     72     1
     65     76     1
     65     80     1
     64     71     1
     63     68     1
     62     86     1
     62     65     1
     59     87     1
     59     64     1
     59     84     1
     59     85     1
     57     63     1
     57     88     1
     57     89     1
     54     62     1
     54     87     1
     53     59     1
     53     86     1
     52     54     1
     51     57     1
    126    135     1
    123    132     1
    120    129     1
    117    126     1
    114    123     1
    112    120     1
    110    117     1
    107    114     1
    104    112     1
    101    110     1
     98    107     1
     95    104     1
     92    101     1
     89     98     1
     46     48     1
     46     49     1
     46     50     1
     45     48     1
     45     49     1
     45     50     1
     43     45     1
     43     46     1
     43     47     1
     42     45     1
     42     46     1
     42     47     1
     41     48     1
     41     49     1
     41     50     1
     40     42     1
     40     43     1
     40     44     1
     39     42     1
     39     43     1
     39     44     1
     38     45     1
     38     46     1
     37     39     1
     37     40     1
     37     41     1
     36     39     1
     36     40     1
     36     41     1
     35     42     1
     35     43     1
     34     36     1
     34     37     1
     34     38     1
     33     36     1
     33     37     1
     33     38     1
     32     39     1
     32     40     1
     31     33     1
     31     34     1
     31     35     1
     30     33     1
     30     34     1
     30     35     1
     29     36     1
     29     37     1
     28     30     1
     28     31     1
     28     32     1
     27     30     1
     27     31     1
     27     32     1
     26     33     1
     26     34     1
     25     27     1
     25     28     1
     25     29     1
     24     30     1
     24     31     1
     23     25     1
     23     26     1
     22     27     1
     22     28     1
     21     23     1
     21     24     1
     20     23     1
     20     24     1
     19     25     1
     18     20     1
     18     21     1
     18     22     1
     17     20     1
     17     21     1
     17     22     1
     16     23     1
     15     17     1
     15     18     1
     15     19     1
     14     17     1
     14     18     1
     14     19     1
     13     20     1
     13     21     1
     12     14     1
     12     15     1
     12     16     1
     11     14     1
     11     15     1
     11     16     1
     10     17     1
     10     18     1
      9     11     1
      9     12     1
      9     13     1
      8     11     1
      8     12     1
      8     13     1
      7     14     1
      7     15     1
     51      6     1
      6      8     1
      6      9     1
      6     10     1
     51      5     1
      5      8     1
      5      9     1
      5     10     1
      4     11     1
      4     12     1
      3      5     1
      3      6     1
      3      7     1
      3     52     1
      3     53     1
      2      5     1
      2      6     1
      2      7     1
      2     52     1
      2     53     1
      1      8     1
      1      9     1
     88     90     1
     88     91     1
     87     93     1
     87     94     1
     86     90     1
     86     91     1
     79     80     1
     78     80     1
     77     80     1
     76     81     1
     76     82     1
     76     83     1
     75     76     1
     75     80     1
     74     76     1
     74     80     1
     73     76     1
     73     80     1
     72     77     1
     72     78     1
     72     79     1
     72     81     1
     72     82     1
     72     83     1
     70     72     1
     70     76     1
     70     80     1
     69     72     1
     69     76     1
     69     80     1
     68     73     1
     68     74     1
     68     75     1
     68     77     1
     68     78     1
     68     79     1
     68     81     1
     68     82     1
     68     83     1
     67     69     1
     67     70     1
     67     71     1
     66     69     1
     66     70     1
     66     71     1
     64     69     1
     64     70     1
     63     66     1
     63     67     1
     61     86     1
     61     63     1
     60     86     1
     60     63     1
     58     60     1
     58     61     1
     58     62     1
     58     87     1
     56     58     1
     56     59     1
     56     86     1
     55     58     1
     55     59     1
     55     86     1
     54     60     1
     54     61     1
     53     58     1
     51     55     1
     51     56     1
    134    136     1
    134    137     1
    134    138     1
    133    136     1
    133    137     1
    133    138     1
    131    133     1
    131    134     1
    131    135     1
    130    133     1
    130    134     1
    130    135     1
    129    136     1
    129    137     1
    129    138     1
    128    130     1
    128    131     1
    128    132     1
    127    130     1
    127    131     1
    127    132     1
    126    133     1
    126    134     1
    125    127     1
    125    128     1
    125    129     1
    124    127     1
    124    128     1
    124    129     1
    123    130     1
    123    131     1
    122    124     1
    122    125     1
    122    126     1
    121    124     1
    121    125     1
    121    126     1
    120    127     1
    120    128     1
    119    121     1
    119    122     1
    119    123     1
    118    121     1
    118    122     1
    118    123     1
    117    124     1
    117    125     1
    116    118     1
    116    119     1
    116    120     1
    115    118     1
    115    119     1
    115    120     1
    114    121     1
    114    122     1
    113    115     1
    113    116     1
    113    117     1
    112    118     1
    112    119     1
    111    113     1
    111    114     1
    110    115     1
    110    116     1
    109    111     1
    109    112     1
    108    111     1
    108    112     1
    107    113     1
    106    108     1
    106    109     1
    106    110     1
    105    108     1
    105    109     1
    105    110     1
    104    111     1
    103    105     1
    103    106     1
    103    107     1
    102    105     1
    102    106     1
    102    107     1
    101    108     1
    101    109     1
    100    102     1
    100    103     1
    100    104     1
     99    102     1
     99    103     1
     99    104     1
     98    105     1
     98    106     1
     97     99     1
     97    100     1
     97    101     1
     96     99     1
     96    100     1
     96    101     1
     95    102     1
     95    103     1
     94     96     1
     94     97     1
     94     98     1
     93     96     1
     93     97     1
     93     98     1
     92     99     1
     92    100     1
     91     93     1
     91     94     1
     91     95     1
     90     93     1
     90     94     1
     90     95     1
     89     96     1
     89     97     1


[ angles ]
;    ai     aj     ak funct         c0         c1         c2         c3
     41     44     47     1   112.0500483 394.969600
     38     41     44     1   112.0500483 394.969600
     35     38     41     1   112.0500483 394.969600
     32     35     38     1   112.0500483 394.969600
     29     32     35     1   112.0500483 394.969600
     26     29     32     1   112.0500483 394.969600
     24     26     29     1   111.4400476 531.619040
     22     24     26     1   123.4200531 538.313440
     19     22     24     1   123.4200531 538.313440
     16     19     22     1   111.4400476 531.619040
     13     16     19     1   112.0500483 394.969600
     10     13     16     1   112.0500483 394.969600
      7     10     13     1   112.0500483 394.969600
      4      1     51     1   110.5300474 533.794720
      4      7     10     1   112.0500483 394.969600
      1      4      7     1   112.0500483 394.969600
      1     51     52     1   123.1100526 569.275040
      1     51     53     1   111.9600481 579.567680
     88     87     89     1   123.1100526 569.275040
     87     89     92     1   110.5300474 533.794720
     86     87     88     1   123.3300529 635.382240
     86     87     89     1   111.9600481 579.567680
     84     63     85     1   119.9000514 1171.520000
     76     71     80     1   110.6400473 525.845120
     72     71     76     1   110.6400473 525.845120
     72     71     80     1   110.6400473 525.845120
     68     71     72     1   110.6400473 525.845120
     68     71     76     1   110.6400473 525.845120
     68     71     80     1   110.6400473 525.845120
     65     68     71     1   114.3200492 539.317600
     64     63     84     1   108.2300464 836.800000
     64     63     85     1   108.2300464 836.800000
     64     65     68     1   108.4200467 567.183040
     63     64     65     1   120.5000516 836.800000
     62     63     64     1   102.6000440 753.120000
     62     63     84     1   108.2300464 836.800000
     62     63     85     1   108.2300464 836.800000
     59     57     86     1   108.4200467 567.183040
     59     62     63     1   120.5000516 836.800000
     57     59     62     1   108.4200467 567.183040
     57     86     87     1   115.1400492 532.455840
     54     57     59     1   110.6300475 528.941280
     54     57     86     1   108.4200467 567.183040
     53     54     57     1   108.4200467 567.183040
     52     51     53     1   123.3300529 635.382240
     51     53     54     1   115.1400492 532.455840
    129    132    135     1   112.0500483 394.969600
    126    129    132     1   112.0500483 394.969600
    123    126    129     1   112.0500483 394.969600
    120    123    126     1   112.0500483 394.969600
    117    120    123     1   112.0500483 394.969600
    114    117    120     1   112.0500483 394.969600
    112    114    117     1   111.4400476 531.619040
    110    112    114     1   123.4200531 538.313440
    107    110    112     1   123.4200531 538.313440
    104    107    110     1   111.4400476 531.619040
    101    104    107     1   112.0500483 394.969600
     98    101    104     1   112.0500483 394.969600
     95     98    101     1   112.0500483 394.969600
     92     95     98     1   112.0500483 394.969600
     89     92     95     1   112.0500483 394.969600
     49     47     50     1   108.3500467 329.950240
     48     47     49     1   108.3500467 329.950240
     48     47     50     1   108.3500467 329.950240
     46     44     47     1   110.0500475 388.024160
     45     44     46     1   108.3500467 329.950240
     45     44     47     1   110.0500475 388.024160
     44     47     48     1   110.0500475 388.024160
     44     47     49     1   110.0500475 388.024160
     44     47     50     1   110.0500475 388.024160
     43     41     44     1   110.0500475 388.024160
     42     41     43     1   108.3500467 329.950240
     42     41     44     1   110.0500475 388.024160
     41     44     45     1   110.0500475 388.024160
     41     44     46     1   110.0500475 388.024160
     40     38     41     1   110.0500475 388.024160
     39     38     40     1   108.3500467 329.950240
     39     38     41     1   110.0500475 388.024160
     38     41     42     1   110.0500475 388.024160
     38     41     43     1   110.0500475 388.024160
     37     35     38     1   110.0500475 388.024160
     36     35     37     1   108.3500467 329.950240
     36     35     38     1   110.0500475 388.024160
     35     38     39     1   110.0500475 388.024160
     35     38     40     1   110.0500475 388.024160
     34     32     35     1   110.0500475 388.024160
     33     32     34     1   108.3500467 329.950240
     33     32     35     1   110.0500475 388.024160
     32     35     36     1   110.0500475 388.024160
     32     35     37     1   110.0500475 388.024160
     31     29     32     1   110.0500475 388.024160
     30     29     31     1   108.3500467 329.950240
     30     29     32     1   110.0500475 388.024160
     29     32     33     1   110.0500475 388.024160
     29     32     34     1   110.0500475 388.024160
     28     26     29     1   110.0500475 388.024160
     27     26     28     1   108.3500467 329.950240
     27     26     29     1   110.0500475 388.024160
     26     29     30     1   110.0500475 388.024160
     26     29     31     1   110.0500475 388.024160
     25     24     26     1   117.3000503 382.082880
     24     26     27     1   110.4900475 393.547040
     24     26     28     1   110.4900475 393.547040
     23     22     24     1   120.9400517 418.734720
     22     24     25     1   120.9400517 418.734720
     21     19     22     1   110.4900475 393.547040
     20     19     21     1   108.3500467 329.950240
     20     19     22     1   110.4900475 393.547040
     19     22     23     1   117.3000503 382.082880
     18     16     19     1   110.0500475 388.024160
     17     16     18     1   108.3500467 329.950240
     17     16     19     1   110.0500475 388.024160
     16     19     20     1   110.0500475 388.024160
     16     19     21     1   110.0500475 388.024160
     15     13     16     1   110.0500475 388.024160
     14     13     15     1   108.3500467 329.950240
     14     13     16     1   110.0500475 388.024160
     13     16     17     1   110.0500475 388.024160
     13     16     18     1   110.0500475 388.024160
     12     10     13     1   110.0500475 388.024160
     11     10     12     1   108.3500467 329.950240
     11     10     13     1   110.0500475 388.024160
     10     13     14     1   110.0500475 388.024160
     10     13     15     1   110.0500475 388.024160
      9      7     10     1   110.0500475 388.024160
      8      7      9     1   108.3500467 329.950240
      8      7     10     1   110.0500475 388.024160
      7     10     11     1   110.0500475 388.024160
      7     10     12     1   110.0500475 388.024160
      6      4      7     1   110.0500475 388.024160
      5      4      6     1   108.3500467 329.950240
      5      4      7     1   110.0500475 388.024160
      4      7      8     1   110.0500475 388.024160
      4      7      9     1   110.0500475 388.024160
      3      1      4     1   110.0500475 388.024160
      3      1     51     1   109.6800468 394.969600
      2      1      3     1   108.3500467 329.950240
      2      1      4     1   110.0500475 388.024160
      2      1     51     1   109.6800468 394.969600
      1      4      5     1   110.0500475 388.024160
      1      4      6     1   110.0500475 388.024160
     87     89     90     1   109.6800468 394.969600
     87     89     91     1   109.6800468 394.969600
     82     80     83     1   110.7400473 326.686720
     81     80     82     1   110.7400473 326.686720
     81     80     83     1   110.7400473 326.686720
     78     76     79     1   110.7400473 326.686720
     77     76     78     1   110.7400473 326.686720
     77     76     79     1   110.7400473 326.686720
     74     72     75     1   110.7400473 326.686720
     73     72     74     1   110.7400473 326.686720
     73     72     75     1   110.7400473 326.686720
     71     72     73     1   107.9100461 410.199360
     71     72     74     1   107.9100461 410.199360
     71     72     75     1   107.9100461 410.199360
     71     76     77     1   107.9100461 410.199360
     71     76     78     1   107.9100461 410.199360
     71     76     79     1   107.9100461 410.199360
     71     80     81     1   107.9100461 410.199360
     71     80     82     1   107.9100461 410.199360
     71     80     83     1   107.9100461 410.199360
     70     68     71     1   107.9100461 410.199360
     69     68     70     1   110.7400473 326.686720
     69     68     71     1   107.9100461 410.199360
     67     65     68     1   110.0700471 387.940480
     66     65     67     1   109.5500472 327.858240
     66     65     68     1   110.0700471 387.940480
     65     68     69     1   111.7400478 385.095360
     65     68     70     1   111.7400478 385.095360
     64     65     66     1   108.8200469 425.429120
     64     65     67     1   108.8200469 425.429120
     61     59     62     1   108.8200469 425.429120
     60     59     61     1   109.5500472 327.858240
     60     59     62     1   108.8200469 425.429120
     58     57     59     1   110.0700471 387.940480
     58     57     86     1   108.8200469 425.429120
     57     59     60     1   110.0700471 387.940480
     57     59     61     1   110.0700471 387.940480
     56     54     57     1   110.0700471 387.940480
     55     54     56     1   109.5500472 327.858240
     55     54     57     1   110.0700471 387.940480
     54     57     58     1   110.0700471 387.940480
     53     54     55     1   108.8200469 425.429120
     53     54     56     1   108.8200469 425.429120
    137    135    138     1   108.3500467 329.950240
    136    135    137     1   108.3500467 329.950240
    136    135    138     1   108.3500467 329.950240
    134    132    135     1   110.0500475 388.024160
    133    132    134     1   108.3500467 329.950240
    133    132    135     1   110.0500475 388.024160
    132    135    136     1   110.0500475 388.024160
    132    135    137     1   110.0500475 388.024160
    132    135    138     1   110.0500475 388.024160
    131    129    132     1   110.0500475 388.024160
    130    129    131     1   108.3500467 329.950240
    130    129    132     1   110.0500475 388.024160
    129    132    133     1   110.0500475 388.024160
    129    132    134     1   110.0500475 388.024160
    128    126    129     1   110.0500475 388.024160
    127    126    128     1   108.3500467 329.950240
    127    126    129     1   110.0500475 388.024160
    126    129    130     1   110.0500475 388.024160
    126    129    131     1   110.0500475 388.024160
    125    123    126     1   110.0500475 388.024160
    124    123    125     1   108.3500467 329.950240
    124    123    126     1   110.0500475 388.024160
    123    126    127     1   110.0500475 388.024160
    123    126    128     1   110.0500475 388.024160
    122    120    123     1   110.0500475 388.024160
    121    120    122     1   108.3500467 329.950240
    121    120    123     1   110.0500475 388.024160
    120    123    124     1   110.0500475 388.024160
    120    123    125     1   110.0500475 388.024160
    119    117    120     1   110.0500475 388.024160
    118    117    119     1   108.3500467 329.950240
    118    117    120     1   110.0500475 388.024160
    117    120    121     1   110.0500475 388.024160
    117    120    122     1   110.0500475 388.024160
    116    114    117     1   110.0500475 388.024160
    115    114    116     1   108.3500467 329.950240
    115    114    117     1   110.0500475 388.024160
    114    117    118     1   110.0500475 388.024160
    114    117    119     1   110.0500475 388.024160
    113    112    114     1   117.3000503 382.082880
    112    114    115     1   110.4900475 393.547040
    112    114    116     1   110.4900475 393.547040
    111    110    112     1   120.9400517 418.734720
    110    112    113     1   120.9400517 418.734720
    109    107    110     1   110.4900475 393.547040
    108    107    109     1   108.3500467 329.950240
    108    107    110     1   110.4900475 393.547040
    107    110    111     1   117.3000503 382.082880
    106    104    107     1   110.0500475 388.024160
    105    104    106     1   108.3500467 329.950240
    105    104    107     1   110.0500475 388.024160
    104    107    108     1   110.0500475 388.024160
    104    107    109     1   110.0500475 388.024160
    103    101    104     1   110.0500475 388.024160
    102    101    103     1   108.3500467 329.950240
    102    101    104     1   110.0500475 388.024160
    101    104    105     1   110.0500475 388.024160
    101    104    106     1   110.0500475 388.024160
    100     98    101     1   110.0500475 388.024160
     99     98    100     1   108.3500467 329.950240
     99     98    101     1   110.0500475 388.024160
     98    101    102     1   110.0500475 388.024160
     98    101    103     1   110.0500475 388.024160
     97     95     98     1   110.0500475 388.024160
     96     95     97     1   108.3500467 329.950240
     96     95     98     1   110.0500475 388.024160
     95     98     99     1   110.0500475 388.024160
     95     98    100     1   110.0500475 388.024160
     94     92     95     1   110.0500475 388.024160
     93     92     94     1   108.3500467 329.950240
     93     92     95     1   110.0500475 388.024160
     92     95     96     1   110.0500475 388.024160
     92     95     97     1   110.0500475 388.024160
     91     89     92     1   110.0500475 388.024160
     90     89     91     1   108.3500467 329.950240
     90     89     92     1   110.0500475 388.024160
     89     92     93     1   110.0500475 388.024160
     89     92     94     1   110.0500475 388.024160


[ dihedrals ]
;    ai     aj     ak     al funct         c0         c1         c2         c3         c4         c5
     38     41     44     47     1  0.0000000  0.4184000  1
     38     41     44     47     1  0.0000000  0.4184000  2
     38     41     44     47     1  0.0000000  1.2552000  3
     38     41     44     47     1  0.0000000  0.4184000  4
     38     41     44     47     1  0.0000000  0.4184000  5
     35     38     41     44     1  0.0000000  0.4184000  1
     35     38     41     44     1  0.0000000  0.4184000  2
     35     38     41     44     1  0.0000000  1.2552000  3
     35     38     41     44     1  0.0000000  0.4184000  4
     35     38     41     44     1  0.0000000  0.4184000  5
     32     35     38     41     1  0.0000000  0.4184000  1
     32     35     38     41     1  0.0000000  0.4184000  2
     32     35     38     41     1  0.0000000  1.2552000  3
     32     35     38     41     1  0.0000000  0.4184000  4
     32     35     38     41     1  0.0000000  0.4184000  5
     29     32     35     38     1  0.0000000  0.4184000  1
     29     32     35     38     1  0.0000000  0.4184000  2
     29     32     35     38     1  0.0000000  1.2552000  3
     29     32     35     38     1  0.0000000  0.4184000  4
     29     32     35     38     1  0.0000000  0.4184000  5
     26     29     32     35     1  0.0000000  0.4184000  1
     26     29     32     35     1  0.0000000  0.4184000  2
     26     29     32     35     1  0.0000000  1.2552000  3
     26     29     32     35     1  0.0000000  0.4184000  4
     26     29     32     35     1  0.0000000  0.4184000  5
     24     26     29     32     1  0.0000000  0.0000000  1
     24     26     29     32     1  0.0000000  0.0000000  2
     24     26     29     32     1  0.0000000  2.0920000  3
     24     26     29     32     1  0.0000000  0.0000000  4
     24     26     29     32     1  0.0000000  0.4184000  5
     22     24     26     29     1  0.0000000  2.5104000  1
     22     24     26     29     1  180.0000771  1.6736000  2
     22     24     26     29     1  180.0000771  1.6736000  3
     22     24     26     29     1  180.0000771  0.8368000  4
     22     24     26     29     1  180.0000771  0.8368000  5
     19     22     24     26     1  180.0000771  7.1128000  1
     19     22     24     26     1  180.0000771  13.8072000  2
     19     22     24     26     1  0.0000000  2.5104000  3
     19     22     24     26     1  0.0000000  0.0000000  4
     19     22     24     26     1  0.0000000  0.0000000  5
     16     19     22     24     1  0.0000000  2.5104000  1
     16     19     22     24     1  180.0000771  1.6736000  2
     16     19     22     24     1  180.0000771  1.6736000  3
     16     19     22     24     1  180.0000771  0.8368000  4
     16     19     22     24     1  180.0000771  0.8368000  5
     13     16     19     22     1  0.0000000  0.0000000  1
     13     16     19     22     1  0.0000000  0.0000000  2
     13     16     19     22     1  0.0000000  2.0920000  3
     13     16     19     22     1  0.0000000  0.0000000  4
     13     16     19     22     1  0.0000000  0.4184000  5
     10     13     16     19     1  0.0000000  0.4184000  1
     10     13     16     19     1  0.0000000  0.4184000  2
     10     13     16     19     1  0.0000000  1.2552000  3
     10     13     16     19     1  0.0000000  0.4184000  4
     10     13     16     19     1  0.0000000  0.4184000  5
     51      1      4      7     1  0.0000000  0.6527040  3
      7     10     13     16     1  0.0000000  0.4184000  1
      7     10     13     16     1  0.0000000  0.4184000  2
      7     10     13     16     1  0.0000000  1.2552000  3
      7     10     13     16     1  0.0000000  0.4184000  4
      7     10     13     16     1  0.0000000  0.4184000  5
      4      1     51     52     1  180.0000771  0.0000000  2
      4      1     51     53     1  180.0000771  0.0000000  2
      4      7     10     13     1  0.0000000  0.4184000  1
      4      7     10     13     1  0.0000000  0.4184000  2
      4      7     10     13     1  0.0000000  1.2552000  3
      4      7     10     13     1  0.0000000  0.4184000  4
      4      7     10     13     1  0.0000000  0.4184000  5
      1      4      7     10     1  0.0000000  0.4184000  1
      1      4      7     10     1  0.0000000  0.4184000  2
      1      4      7     10     1  0.0000000  1.2552000  3
      1      4      7     10     1  0.0000000  0.4184000  4
      1      4      7     10     1  0.0000000  0.4184000  5
      1     51     53     54     1  180.0000771  11.2968000  2
     88     87     89     92     1  180.0000771  0.0000000  2
     87     89     92     95     1  0.0000000  0.6527040  3
     86     87     89     92     1  180.0000771  0.0000000  2
     65     64     63     84     1  0.0000000  0.0000000  1
     65     64     63     84     1  0.0000000  0.8368000  2
     65     64     63     84     1  0.0000000  0.0000000  3
     65     64     63     84     1  0.0000000  0.0000000  4
     65     64     63     84     1  0.0000000  0.0000000  5
     65     64     63     85     1  0.0000000  0.0000000  1
     65     64     63     85     1  0.0000000  0.8368000  2
     65     64     63     85     1  0.0000000  0.0000000  3
     65     64     63     85     1  0.0000000  0.0000000  4
     65     64     63     85     1  0.0000000  0.0000000  5
     65     68     71     72     1  0.0000000  0.6527040  3
     65     68     71     76     1  0.0000000  0.6527040  3
     65     68     71     80     1  0.0000000  0.6527040  3
     64     65     68     71     1  0.0000000  4.1840000  3
     63     64     65     68     1  180.0000771  -3.3472000  2
     63     64     65     68     1  0.0000000  0.0000000  3
     62     59     57     86     1  0.0000000  0.0000000  1
     62     59     57     86     1  0.0000000  0.0000000  2
     62     59     57     86     1  0.0000000  0.0000000  3
     62     59     57     86     1  0.0000000  0.0000000  4
     62     59     57     86     1  0.0000000  0.0000000  5
     62     63     64     65     1  0.0000000  9.6232000  2
     62     63     64     65     1  0.0000000  2.5104000  3
     59     57     86     87     1  0.0000000  -0.4184000  1
     59     57     86     87     1  240.0001029  -1.2552000  2
     59     57     86     87     1  300.0001286  -0.8368000  3
     59     62     63     64     1  0.0000000  9.6232000  2
     59     62     63     64     1  0.0000000  2.5104000  3
     59     62     63     84     1  0.0000000  0.0000000  1
     59     62     63     84     1  0.0000000  0.8368000  2
     59     62     63     84     1  0.0000000  0.0000000  3
     59     62     63     84     1  0.0000000  0.0000000  4
     59     62     63     84     1  0.0000000  0.0000000  5
     59     62     63     85     1  0.0000000  0.0000000  1
     59     62     63     85     1  0.0000000  0.8368000  2
     59     62     63     85     1  0.0000000  0.0000000  3
     59     62     63     85     1  0.0000000  0.0000000  4
     59     62     63     85     1  0.0000000  0.0000000  5
     57     59     62     63     1  180.0000771  -3.3472000  2
     57     59     62     63     1  0.0000000  0.0000000  3
     57     86     87     88     1  180.0000771  5.8576000  1
     57     86     87     88     1  180.0000771  11.2968000  2
     57     86     87     89     1  180.0000771  11.2968000  2
     54     57     59     62     1  180.0000771  3.3472000  1
     54     57     59     62     1  120.0000514  0.8368000  2
     54     57     59     62     1  60.0000257  1.6736000  3
     54     57     86     87     1  0.0000000  -0.4184000  1
     54     57     86     87     1  240.0001029  -1.2552000  2
     54     57     86     87     1  300.0001286  -0.8368000  3
     53     54     57     59     1  0.0000000  0.0000000  1
     53     54     57     59     1  0.0000000  0.0000000  2
     53     54     57     59     1  0.0000000  0.0000000  3
     53     54     57     59     1  0.0000000  0.0000000  4
     53     54     57     59     1  0.0000000  0.0000000  5
     53     54     57     86     1  180.0000771  -0.4184000  1
     53     54     57     86     1  0.0000000  1.2552000  2
     53     54     57     86     1  0.0000000  4.1840000  3
     52     51     53     54     1  180.0000771  5.8576000  1
     52     51     53     54     1  180.0000771  11.2968000  2
     51     53     54     57     1  0.0000000  -0.4184000  1
     51     53     54     57     1  240.0001029  -1.2552000  2
     51     53     54     57     1  300.0001286  -0.8368000  3
    126    129    132    135     1  0.0000000  0.4184000  1
    126    129    132    135     1  0.0000000  0.4184000  2
    126    129    132    135     1  0.0000000  1.2552000  3
    126    129    132    135     1  0.0000000  0.4184000  4
    126    129    132    135     1  0.0000000  0.4184000  5
    123    126    129    132     1  0.0000000  0.4184000  1
    123    126    129    132     1  0.0000000  0.4184000  2
    123    126    129    132     1  0.0000000  1.2552000  3
    123    126    129    132     1  0.0000000  0.4184000  4
    123    126    129    132     1  0.0000000  0.4184000  5
    120    123    126    129     1  0.0000000  0.4184000  1
    120    123    126    129     1  0.0000000  0.4184000  2
    120    123    126    129     1  0.0000000  1.2552000  3
    120    123    126    129     1  0.0000000  0.4184000  4
    120    123    126    129     1  0.0000000  0.4184000  5
    117    120    123    126     1  0.0000000  0.4184000  1
    117    120    123    126     1  0.0000000  0.4184000  2
    117    120    123    126     1  0.0000000  1.2552000  3
    117    120    123    126     1  0.0000000  0.4184000  4
    117    120    123    126     1  0.0000000  0.4184000  5
    114    117    120    123     1  0.0000000  0.4184000  1
    114    117    120    123     1  0.0000000  0.4184000  2
    114    117    120    123     1  0.0000000  1.2552000  3
    114    117    120    123     1  0.0000000  0.4184000  4
    114    117    120    123     1  0.0000000  0.4184000  5
    112    114    117    120     1  0.0000000  0.0000000  1
    112    114    117    120     1  0.0000000  0.0000000  2
    112    114    117    120     1  0.0000000  2.0920000  3
    112    114    117    120     1  0.0000000  0.0000000  4
    112    114    117    120     1  0.0000000  0.4184000  5
    110    112    114    117     1  0.0000000  2.5104000  1
    110    112    114    117     1  180.0000771  1.6736000  2
    110    112    114    117     1  180.0000771  1.6736000  3
    110    112    114    117     1  180.0000771  0.8368000  4
    110    112    114    117     1  180.0000771  0.8368000  5
    107    110    112    114     1  180.0000771  7.1128000  1
    107    110    112    114     1  180.0000771  13.8072000  2
    107    110    112    114     1  0.0000000  2.5104000  3
    107    110    112    114     1  0.0000000  0.0000000  4
    107    110    112    114     1  0.0000000  0.0000000  5
    104    107    110    112     1  0.0000000  2.5104000  1
    104    107    110    112     1  180.0000771  1.6736000  2
    104    107    110    112     1  180.0000771  1.6736000  3
    104    107    110    112     1  180.0000771  0.8368000  4
    104    107    110    112     1  180.0000771  0.8368000  5
    101    104    107    110     1  0.0000000  0.0000000  1
    101    104    107    110     1  0.0000000  0.0000000  2
    101    104    107    110     1  0.0000000  2.0920000  3
    101    104    107    110     1  0.0000000  0.0000000  4
    101    104    107    110     1  0.0000000  0.4184000  5
     98    101    104    107     1  0.0000000  0.4184000  1
     98    101    104    107     1  0.0000000  0.4184000  2
     98    101    104    107     1  0.0000000  1.2552000  3
     98    101    104    107     1  0.0000000  0.4184000  4
     98    101    104    107     1  0.0000000  0.4184000  5
     95     98    101    104     1  0.0000000  0.4184000  1
     95     98    101    104     1  0.0000000  0.4184000  2
     95     98    101    104     1  0.0000000  1.2552000  3
     95     98    101    104     1  0.0000000  0.4184000  4
     95     98    101    104     1  0.0000000  0.4184000  5
     92     95     98    101     1  0.0000000  0.4184000  1
     92     95     98    101     1  0.0000000  0.4184000  2
     92     95     98    101     1  0.0000000  1.2552000  3
     92     95     98    101     1  0.0000000  0.4184000  4
     92     95     98    101     1  0.0000000  0.4184000  5
     89     92     95     98     1  0.0000000  0.4184000  1
     89     92     95     98     1  0.0000000  0.4184000  2
     89     92     95     98     1  0.0000000  1.2552000  3
     89     92     95     98     1  0.0000000  0.4184000  4
     89     92     95     98     1  0.0000000  0.4184000  5
     89     88     87     86     4  180.0000771  43.9320000  2
      1     52     51     53     4  180.0000771  43.9320000  2
     46     44     47     48     1  0.0000000  0.6276000  3
     46     44     47     49     1  0.0000000  0.6276000  3
     46     44     47     50     1  0.0000000  0.6276000  3
     45     44     47     48     1  0.0000000  0.6276000  3
     45     44     47     49     1  0.0000000  0.6276000  3
     45     44     47     50     1  0.0000000  0.6276000  3
     43     41     44     45     1  0.0000000  0.6276000  3
     43     41     44     46     1  0.0000000  0.6276000  3
     43     41     44     47     1  0.0000000  0.6694400  3
     42     41     44     45     1  0.0000000  0.6276000  3
     42     41     44     46     1  0.0000000  0.6276000  3
     42     41     44     47     1  0.0000000  0.6694400  3
     41     44     47     48     1  0.0000000  0.6694400  3
     41     44     47     49     1  0.0000000  0.6694400  3
     41     44     47     50     1  0.0000000  0.6694400  3
     40     38     41     42     1  0.0000000  0.6276000  3
     40     38     41     43     1  0.0000000  0.6276000  3
     40     38     41     44     1  0.0000000  0.6694400  3
     39     38     41     42     1  0.0000000  0.6276000  3
     39     38     41     43     1  0.0000000  0.6276000  3
     39     38     41     44     1  0.0000000  0.6694400  3
     38     41     44     45     1  0.0000000  0.6694400  3
     38     41     44     46     1  0.0000000  0.6694400  3
     37     35     38     39     1  0.0000000  0.6276000  3
     37     35     38     40     1  0.0000000  0.6276000  3
     37     35     38     41     1  0.0000000  0.6694400  3
     36     35     38     39     1  0.0000000  0.6276000  3
     36     35     38     40     1  0.0000000  0.6276000  3
     36     35     38     41     1  0.0000000  0.6694400  3
     35     38     41     42     1  0.0000000  0.6694400  3
     35     38     41     43     1  0.0000000  0.6694400  3
     34     32     35     36     1  0.0000000  0.6276000  3
     34     32     35     37     1  0.0000000  0.6276000  3
     34     32     35     38     1  0.0000000  0.6694400  3
     33     32     35     36     1  0.0000000  0.6276000  3
     33     32     35     37     1  0.0000000  0.6276000  3
     33     32     35     38     1  0.0000000  0.6694400  3
     32     35     38     39     1  0.0000000  0.6694400  3
     32     35     38     40     1  0.0000000  0.6694400  3
     31     29     32     33     1  0.0000000  0.6276000  3
     31     29     32     34     1  0.0000000  0.6276000  3
     31     29     32     35     1  0.0000000  0.6694400  3
     30     29     32     33     1  0.0000000  0.6276000  3
     30     29     32     34     1  0.0000000  0.6276000  3
     30     29     32     35     1  0.0000000  0.6694400  3
     29     32     35     36     1  0.0000000  0.6694400  3
     29     32     35     37     1  0.0000000  0.6694400  3
     28     26     29     30     1  0.0000000  0.6276000  3
     28     26     29     31     1  0.0000000  0.6276000  3
     28     26     29     32     1  0.0000000  0.6694400  3
     27     26     29     30     1  0.0000000  0.6276000  3
     27     26     29     31     1  0.0000000  0.6276000  3
     27     26     29     32     1  0.0000000  0.6694400  3
     26     29     32     33     1  0.0000000  0.6694400  3
     26     29     32     34     1  0.0000000  0.6694400  3
     25     24     26     27     1  0.0000000  0.0000000  2
     25     24     26     28     1  0.0000000  0.0000000  2
     25     24     26     29     1  0.0000000  0.0000000  2
     24     26     29     30     1  0.0000000  0.6510304  3
     24     26     29     31     1  0.0000000  0.6510304  3
     23     22     24     25     1  180.0000771  27.8236000  2
     23     22     24     26     1  180.0000771  27.8236000  2
     22     24     26     27     1  0.0000000  4.8116000  1
     22     24     26     27     1  180.0000771  1.5899200  3
     22     24     26     28     1  0.0000000  4.8116000  1
     22     24     26     28     1  180.0000771  1.5899200  3
     21     19     22     23     1  0.0000000  0.0000000  2
     21     19     22     24     1  0.0000000  4.8116000  1
     21     19     22     24     1  180.0000771  1.5899200  3
     20     19     22     23     1  0.0000000  0.0000000  2
     20     19     22     24     1  0.0000000  4.8116000  1
     20     19     22     24     1  180.0000771  1.5899200  3
     19     22     24     25     1  180.0000771  27.8236000  2
     18     16     19     20     1  0.0000000  0.6276000  3
     18     16     19     21     1  0.0000000  0.6276000  3
     18     16     19     22     1  0.0000000  0.6510304  3
     17     16     19     20     1  0.0000000  0.6276000  3
     17     16     19     21     1  0.0000000  0.6276000  3
     17     16     19     22     1  0.0000000  0.6510304  3
     16     19     22     23     1  0.0000000  0.0000000  2
     15     13     16     17     1  0.0000000  0.6276000  3
     15     13     16     18     1  0.0000000  0.6276000  3
     15     13     16     19     1  0.0000000  0.6694400  3
     14     13     16     17     1  0.0000000  0.6276000  3
     14     13     16     18     1  0.0000000  0.6276000  3
     14     13     16     19     1  0.0000000  0.6694400  3
     13     16     19     20     1  0.0000000  0.6694400  3
     13     16     19     21     1  0.0000000  0.6694400  3
     12     10     13     14     1  0.0000000  0.6276000  3
     12     10     13     15     1  0.0000000  0.6276000  3
     12     10     13     16     1  0.0000000  0.6694400  3
     11     10     13     14     1  0.0000000  0.6276000  3
     11     10     13     15     1  0.0000000  0.6276000  3
     11     10     13     16     1  0.0000000  0.6694400  3
     10     13     16     17     1  0.0000000  0.6694400  3
     10     13     16     18     1  0.0000000  0.6694400  3
      9      7     10     11     1  0.0000000  0.6276000  3
      9      7     10     12     1  0.0000000  0.6276000  3
      9      7     10     13     1  0.0000000  0.6694400  3
      8      7     10     11     1  0.0000000  0.6276000  3
      8      7     10     12     1  0.0000000  0.6276000  3
      8      7     10     13     1  0.0000000  0.6694400  3
      7     10     13     14     1  0.0000000  0.6694400  3
      7     10     13     15     1  0.0000000  0.6694400  3
     51      1      4      6     1  0.0000000  0.6527040  3
      6      4      7      8     1  0.0000000  0.6276000  3
      6      4      7      9     1  0.0000000  0.6276000  3
      6      4      7     10     1  0.0000000  0.6694400  3
     51      1      4      5     1  0.0000000  0.6527040  3
      5      4      7      8     1  0.0000000  0.6276000  3
      5      4      7      9     1  0.0000000  0.6276000  3
      5      4      7     10     1  0.0000000  0.6694400  3
      4      7     10     11     1  0.0000000  0.6694400  3
      4      7     10     12     1  0.0000000  0.6694400  3
      3      1      4      5     1  0.0000000  0.6276000  3
      3      1      4      6     1  0.0000000  0.6276000  3
      3      1      4      7     1  0.0000000  0.6694400  3
      3      1     51     52     1  0.0000000  3.3472000  1
      3      1     51     52     1  180.0000771  0.3347200  3
      3      1     51     53     1  180.0000771  0.0000000  2
      2      1      4      5     1  0.0000000  0.6276000  3
      2      1      4      6     1  0.0000000  0.6276000  3
      2      1      4      7     1  0.0000000  0.6694400  3
      2      1     51     52     1  0.0000000  3.3472000  1
      2      1     51     52     1  180.0000771  0.3347200  3
      2      1     51     53     1  180.0000771  0.0000000  2
      1      4      7      8     1  0.0000000  0.6694400  3
      1      4      7      9     1  0.0000000  0.6694400  3
     88     87     89     90     1  0.0000000  3.3472000  1
     88     87     89     90     1  180.0000771  0.3347200  3
     88     87     89     91     1  0.0000000  3.3472000  1
     88     87     89     91     1  180.0000771  0.3347200  3
     87     89     92     93     1  0.0000000  0.6527040  3
     87     89     92     94     1  0.0000000  0.6527040  3
     86     87     89     90     1  180.0000771  0.0000000  2
     86     87     89     91     1  180.0000771  0.0000000  2
     79     76     71     80     1  0.0000000  0.6527040  3
     78     76     71     80     1  0.0000000  0.6527040  3
     77     76     71     80     1  0.0000000  0.6527040  3
     76     71     80     81     1  0.0000000  0.6527040  3
     76     71     80     82     1  0.0000000  0.6527040  3
     76     71     80     83     1  0.0000000  0.6527040  3
     75     72     71     76     1  0.0000000  0.6527040  3
     75     72     71     80     1  0.0000000  0.6527040  3
     74     72     71     76     1  0.0000000  0.6527040  3
     74     72     71     80     1  0.0000000  0.6527040  3
     73     72     71     76     1  0.0000000  0.6527040  3
     73     72     71     80     1  0.0000000  0.6527040  3
     72     71     76     77     1  0.0000000  0.6527040  3
     72     71     76     78     1  0.0000000  0.6527040  3
     72     71     76     79     1  0.0000000  0.6527040  3
     72     71     80     81     1  0.0000000  0.6527040  3
     72     71     80     82     1  0.0000000  0.6527040  3
     72     71     80     83     1  0.0000000  0.6527040  3
     70     68     71     72     1  0.0000000  0.6527040  3
     70     68     71     76     1  0.0000000  0.6527040  3
     70     68     71     80     1  0.0000000  0.6527040  3
     69     68     71     72     1  0.0000000  0.6527040  3
     69     68     71     76     1  0.0000000  0.6527040  3
     69     68     71     80     1  0.0000000  0.6527040  3
     68     71     72     73     1  0.0000000  0.6527040  3
     68     71     72     74     1  0.0000000  0.6527040  3
     68     71     72     75     1  0.0000000  0.6527040  3
     68     71     76     77     1  0.0000000  0.6527040  3
     68     71     76     78     1  0.0000000  0.6527040  3
     68     71     76     79     1  0.0000000  0.6527040  3
     68     71     80     81     1  0.0000000  0.6527040  3
     68     71     80     82     1  0.0000000  0.6527040  3
     68     71     80     83     1  0.0000000  0.6527040  3
     67     65     68     69     1  0.0000000  0.6527040  3
     67     65     68     70     1  0.0000000  0.6527040  3
     67     65     68     71     1  0.0000000  0.6527040  3
     66     65     68     69     1  0.0000000  0.6527040  3
     66     65     68     70     1  0.0000000  0.6527040  3
     66     65     68     71     1  0.0000000  0.6527040  3
     64     65     68     69     1  0.0000000  0.6527040  3
     64     65     68     70     1  0.0000000  0.6527040  3
     63     64     65     66     1  0.0000000  0.0000000  1
     63     64     65     66     1  0.0000000  0.0000000  2
     63     64     65     66     1  0.0000000  1.6024720  3
     63     64     65     66     1  0.0000000  0.0000000  4
     63     64     65     66     1  0.0000000  0.0000000  5
     63     64     65     67     1  0.0000000  0.0000000  1
     63     64     65     67     1  0.0000000  0.0000000  2
     63     64     65     67     1  0.0000000  1.6024720  3
     63     64     65     67     1  0.0000000  0.0000000  4
     63     64     65     67     1  0.0000000  0.0000000  5
     61     59     57     86     1  0.0000000  1.0460000  1
     61     59     57     86     1  0.0000000  0.0000000  3
     61     59     62     63     1  0.0000000  0.0000000  1
     61     59     62     63     1  0.0000000  0.0000000  2
     61     59     62     63     1  0.0000000  1.6024720  3
     61     59     62     63     1  0.0000000  0.0000000  4
     61     59     62     63     1  0.0000000  0.0000000  5
     60     59     57     86     1  0.0000000  1.0460000  1
     60     59     57     86     1  0.0000000  0.0000000  3
     60     59     62     63     1  0.0000000  0.0000000  1
     60     59     62     63     1  0.0000000  0.0000000  2
     60     59     62     63     1  0.0000000  1.6024720  3
     60     59     62     63     1  0.0000000  0.0000000  4
     60     59     62     63     1  0.0000000  0.0000000  5
     58     57     59     60     1  0.0000000  0.6527040  3
     58     57     59     61     1  0.0000000  0.6527040  3
     58     57     59     62     1  0.0000000  1.0460000  1
     58     57     59     62     1  0.0000000  0.0000000  3
     58     57     86     87     1  0.0000000  1.6024720  3
     56     54     57     58     1  0.0000000  0.6527040  3
     56     54     57     59     1  0.0000000  0.6527040  3
     56     54     57     86     1  0.0000000  1.0460000  1
     56     54     57     86     1  0.0000000  0.0000000  3
     55     54     57     58     1  0.0000000  0.6527040  3
     55     54     57     59     1  0.0000000  0.6527040  3
     55     54     57     86     1  0.0000000  1.0460000  1
     55     54     57     86     1  0.0000000  0.0000000  3
     54     57     59     60     1  0.0000000  0.6527040  3
     54     57     59     61     1  0.0000000  0.6527040  3
     53     54     57     58     1  0.0000000  1.0460000  1
     53     54     57     58     1  0.0000000  0.0000000  3
     51     53     54     55     1  0.0000000  1.6024720  3
     51     53     54     56     1  0.0000000  1.6024720  3
    134    132    135    136     1  0.0000000  0.6276000  3
    134    132    135    137     1  0.0000000  0.6276000  3
    134    132    135    138     1  0.0000000  0.6276000  3
    133    132    135    136     1  0.0000000  0.6276000  3
    133    132    135    137     1  0.0000000  0.6276000  3
    133    132    135    138     1  0.0000000  0.6276000  3
    131    129    132    133     1  0.0000000  0.6276000  3
    131    129    132    134     1  0.0000000  0.6276000  3
    131    129    132    135     1  0.0000000  0.6694400  3
    130    129    132    133     1  0.0000000  0.6276000  3
    130    129    132    134     1  0.0000000  0.6276000  3
    130    129    132    135     1  0.0000000  0.6694400  3
    129    132    135    136     1  0.0000000  0.6694400  3
    129    132    135    137     1  0.0000000  0.6694400  3
    129    132    135    138     1  0.0000000  0.6694400  3
    128    126    129    130     1  0.0000000  0.6276000  3
    128    126    129    131     1  0.0000000  0.6276000  3
    128    126    129    132     1  0.0000000  0.6694400  3
    127    126    129    130     1  0.0000000  0.6276000  3
    127    126    129    131     1  0.0000000  0.6276000  3
    127    126    129    132     1  0.0000000  0.6694400  3
    126    129    132    133     1  0.0000000  0.6694400  3
    126    129    132    134     1  0.0000000  0.6694400  3
    125    123    126    127     1  0.0000000  0.6276000  3
    125    123    126    128     1  0.0000000  0.6276000  3
    125    123    126    129     1  0.0000000  0.6694400  3
    124    123    126    127     1  0.0000000  0.6276000  3
    124    123    126    128     1  0.0000000  0.6276000  3
    124    123    126    129     1  0.0000000  0.6694400  3
    123    126    129    130     1  0.0000000  0.6694400  3
    123    126    129    131     1  0.0000000  0.6694400  3
    122    120    123    124     1  0.0000000  0.6276000  3
    122    120    123    125     1  0.0000000  0.6276000  3
    122    120    123    126     1  0.0000000  0.6694400  3
    121    120    123    124     1  0.0000000  0.6276000  3
    121    120    123    125     1  0.0000000  0.6276000  3
    121    120    123    126     1  0.0000000  0.6694400  3
    120    123    126    127     1  0.0000000  0.6694400  3
    120    123    126    128     1  0.0000000  0.6694400  3
    119    117    120    121     1  0.0000000  0.6276000  3
    119    117    120    122     1  0.0000000  0.6276000  3
    119    117    120    123     1  0.0000000  0.6694400  3
    118    117    120    121     1  0.0000000  0.6276000  3
    118    117    120    122     1  0.0000000  0.6276000  3
    118    117    120    123     1  0.0000000  0.6694400  3
    117    120    123    124     1  0.0000000  0.6694400  3
    117    120    123    125     1  0.0000000  0.6694400  3
    116    114    117    118     1  0.0000000  0.6276000  3
    116    114    117    119     1  0.0000000  0.6276000  3
    116    114    117    120     1  0.0000000  0.6694400  3
    115    114    117    118     1  0.0000000  0.6276000  3
    115    114    117    119     1  0.0000000  0.6276000  3
    115    114    117    120     1  0.0000000  0.6694400  3
    114    117    120    121     1  0.0000000  0.6694400  3
    114    117    120    122     1  0.0000000  0.6694400  3
    113    112    114    115     1  0.0000000  0.0000000  2
    113    112    114    116     1  0.0000000  0.0000000  2
    113    112    114    117     1  0.0000000  0.0000000  2
    112    114    117    118     1  0.0000000  0.6510304  3
    112    114    117    119     1  0.0000000  0.6510304  3
    111    110    112    113     1  180.0000771  27.8236000  2
    111    110    112    114     1  180.0000771  27.8236000  2
    110    112    114    115     1  0.0000000  4.8116000  1
    110    112    114    115     1  180.0000771  1.5899200  3
    110    112    114    116     1  0.0000000  4.8116000  1
    110    112    114    116     1  180.0000771  1.5899200  3
    109    107    110    111     1  0.0000000  0.0000000  2
    109    107    110    112     1  0.0000000  4.8116000  1
    109    107    110    112     1  180.0000771  1.5899200  3
    108    107    110    111     1  0.0000000  0.0000000  2
    108    107    110    112     1  0.0000000  4.8116000  1
    108    107    110    112     1  180.0000771  1.5899200  3
    107    110    112    113     1  180.0000771  27.8236000  2
    106    104    107    108     1  0.0000000  0.6276000  3
    106    104    107    109     1  0.0000000  0.6276000  3
    106    104    107    110     1  0.0000000  0.6510304  3
    105    104    107    108     1  0.0000000  0.6276000  3
    105    104    107    109     1  0.0000000  0.6276000  3
    105    104    107    110     1  0.0000000  0.6510304  3
    104    107    110    111     1  0.0000000  0.0000000  2
    103    101    104    105     1  0.0000000  0.6276000  3
    103    101    104    106     1  0.0000000  0.6276000  3
    103    101    104    107     1  0.0000000  0.6694400  3
    102    101    104    105     1  0.0000000  0.6276000  3
    102    101    104    106     1  0.0000000  0.6276000  3
    102    101    104    107     1  0.0000000  0.6694400  3
    101    104    107    108     1  0.0000000  0.6694400  3
    101    104    107    109     1  0.0000000  0.6694400  3
    100     98    101    102     1  0.0000000  0.6276000  3
    100     98    101    103     1  0.0000000  0.6276000  3
    100     98    101    104     1  0.0000000  0.6694400  3
     99     98    101    102     1  0.0000000  0.6276000  3
     99     98    101    103     1  0.0000000  0.6276000  3
     99     98    101    104     1  0.0000000  0.6694400  3
     98    101    104    105     1  0.0000000  0.6694400  3
     98    101    104    106     1  0.0000000  0.6694400  3
     97     95     98     99     1  0.0000000  0.6276000  3
     97     95     98    100     1  0.0000000  0.6276000  3
     97     95     98    101     1  0.0000000  0.6694400  3
     96     95     98     99     1  0.0000000  0.6276000  3
     96     95     98    100     1  0.0000000  0.6276000  3
     96     95     98    101     1  0.0000000  0.6694400  3
     95     98    101    102     1  0.0000000  0.6694400  3
     95     98    101    103     1  0.0000000  0.6694400  3
     94     92     95     96     1  0.0000000  0.6276000  3
     94     92     95     97     1  0.0000000  0.6276000  3
     94     92     95     98     1  0.0000000  0.6694400  3
     93     92     95     96     1  0.0000000  0.6276000  3
     93     92     95     97     1  0.0000000  0.6276000  3
     93     92     95     98     1  0.0000000  0.6694400  3
     92     95     98     99     1  0.0000000  0.6694400  3
     92     95     98    100     1  0.0000000  0.6694400  3
     91     89     92     93     1  0.0000000  0.6276000  3
     91     89     92     94     1  0.0000000  0.6276000  3
     91     89     92     95     1  0.0000000  0.6694400  3
     90     89     92     93     1  0.0000000  0.6276000  3
     90     89     92     94     1  0.0000000  0.6276000  3
     90     89     92     95     1  0.0000000  0.6694400  3
     89     92     95     96     1  0.0000000  0.6694400  3
     89     92     95     97     1  0.0000000  0.6694400  3
     22     26     24     25     4  180.0000771  4.6024000  2
     24     19     22     23     4  180.0000771  4.6024000  2
    110    114    112    113     4  180.0000771  4.6024000  2
    112    107    110    111     4  180.0000771  4.6024000  2
