; Exact Amber Lipid21 v1.0 topology converted by ParmEd
; Explicit [pairs] preserve Lipid21-specific 1-4 scaling.
; Conversion contract: amber-explicit-pairs-v2 (independent of parent defaults).

[ moleculetype ]
; Name nrexcl
DOPE 3

[ atoms ]
; nr type resnr residue atom cgnr charge mass
1 L21_cD 1 DOPE C2X 1 -0.14341800 12.010000
2 L21_hL 1 DOPE H2X 2 0.04286100 1.008000
3 L21_hL 1 DOPE H2Y 3 0.04286100 1.008000
4 L21_cD 1 DOPE C3X 4 0.00161900 12.010000
5 L21_hL 1 DOPE H3X 5 0.01952900 1.008000
6 L21_hL 1 DOPE H3Y 6 0.01952900 1.008000
7 L21_cD 1 DOPE C4X 7 -0.02296000 12.010000
8 L21_hL 1 DOPE H4X 8 0.01813400 1.008000
9 L21_hL 1 DOPE H4Y 9 0.01813400 1.008000
10 L21_cD 1 DOPE C5X 10 -0.01669200 12.010000
11 L21_hL 1 DOPE H5X 11 0.00869000 1.008000
12 L21_hL 1 DOPE H5Y 12 0.00869000 1.008000
13 L21_cD 1 DOPE C6X 13 -0.02378900 12.010000
14 L21_hL 1 DOPE H6X 14 0.00926600 1.008000
15 L21_hL 1 DOPE H6Y 15 0.00926600 1.008000
16 L21_cD 1 DOPE C7X 16 -0.01749500 12.010000
17 L21_hL 1 DOPE H7X 17 0.01959800 1.008000
18 L21_hL 1 DOPE H7Y 18 0.01959800 1.008000
19 L21_cD 1 DOPE C8X 19 0.03177500 12.010000
20 L21_hL 1 DOPE H8X 20 0.03268500 1.008000
21 L21_hL 1 DOPE H8Y 21 0.03268500 1.008000
22 L21_cB 1 DOPE C9X 22 -0.24422800 12.010000
23 L21_hB 1 DOPE H9X 23 0.13151200 1.008000
24 L21_cB 1 DOPE C10X 24 -0.23928400 12.010000
25 L21_hB 1 DOPE H10X 25 0.12687800 1.008000
26 L21_cD 1 DOPE C11X 26 0.02905900 12.010000
27 L21_hL 1 DOPE H11X 27 0.03353100 1.008000
28 L21_hL 1 DOPE H11Y 28 0.03353100 1.008000
29 L21_cD 1 DOPE C12X 29 -0.02635300 12.010000
30 L21_hL 1 DOPE H12X 30 0.01971700 1.008000
31 L21_hL 1 DOPE H12Y 31 0.01971700 1.008000
32 L21_cD 1 DOPE C13X 32 -0.01825700 12.010000
33 L21_hL 1 DOPE H13X 33 0.01380000 1.008000
34 L21_hL 1 DOPE H13Y 34 0.01380000 1.008000
35 L21_cD 1 DOPE C14X 35 -0.02484900 12.010000
36 L21_hL 1 DOPE H14X 36 0.00857200 1.008000
37 L21_hL 1 DOPE H14Y 37 0.00857200 1.008000
38 L21_cD 1 DOPE C15X 38 -0.02324700 12.010000
39 L21_hL 1 DOPE H15X 39 0.01040300 1.008000
40 L21_hL 1 DOPE H15Y 40 0.01040300 1.008000
41 L21_cD 1 DOPE C16X 41 -0.01248800 12.010000
42 L21_hL 1 DOPE H16X 42 0.01365900 1.008000
43 L21_hL 1 DOPE H16Y 43 0.01365900 1.008000
44 L21_cD 1 DOPE C17X 44 0.00868400 12.010000
45 L21_hL 1 DOPE H17X 45 0.01002600 1.008000
46 L21_hL 1 DOPE H17Y 46 0.01002600 1.008000
47 L21_cD 1 DOPE C18X 47 -0.11729000 12.010000
48 L21_hL 1 DOPE H18X 48 0.02662700 1.008000
49 L21_hL 1 DOPE H18Y 49 0.02662700 1.008000
50 L21_hL 1 DOPE H18Z 50 0.02662700 1.008000
51 L21_cC 1 DOPE C11 51 0.88835900 12.010000
52 L21_oC 1 DOPE O12 52 -0.65080200 16.000000
53 L21_oS 1 DOPE O11 53 -0.59382600 16.000000
54 L21_cA 1 DOPE C1 54 0.27377600 12.010000
55 L21_hE 1 DOPE HR 55 0.04457400 1.008000
56 L21_hE 1 DOPE HS 56 0.04457400 1.008000
57 L21_cA 1 DOPE C2 57 0.33900400 12.010000
58 L21_hE 1 DOPE HX 58 0.03284300 1.008000
59 L21_cA 1 DOPE C3 59 0.04096700 12.010000
60 L21_hE 1 DOPE HA 60 0.09099400 1.008000
61 L21_hE 1 DOPE HB 61 0.09099400 1.008000
62 L21_oT 1 DOPE O31 62 -0.54662300 16.000000
63 L21_pA 1 DOPE P31 63 1.37365600 30.970000
64 L21_oT 1 DOPE O32 64 -0.51454200 16.000000
65 L21_cA 1 DOPE C31 65 0.07515900 12.010000
66 L21_hE 1 DOPE H1A 66 0.09151600 1.008000
67 L21_hE 1 DOPE H1B 67 0.09151600 1.008000
68 L21_cA 1 DOPE C32 68 0.07731900 12.010000
69 L21_hX 1 DOPE H2A 69 0.09163000 1.008000
70 L21_hX 1 DOPE H2B 70 0.09163000 1.008000
71 L21_nA 1 DOPE N31 71 -0.36813200 14.010000
72 L21_hN 1 DOPE HN1A 72 0.34854900 1.008000
73 L21_hN 1 DOPE HN1B 73 0.34854900 1.008000
74 L21_hN 1 DOPE HN1C 74 0.34854900 1.008000
75 L21_oP 1 DOPE O33 75 -0.87744700 16.000000
76 L21_oP 1 DOPE O34 76 -0.87744700 16.000000
77 L21_oS 1 DOPE O21 77 -0.57548000 16.000000
78 L21_cC 1 DOPE C21 78 0.86934000 12.010000
79 L21_oC 1 DOPE O22 79 -0.64919900 16.000000
80 L21_cD 1 DOPE C2Y 80 -0.14341800 12.010000
81 L21_hL 1 DOPE H2U 81 0.04286100 1.008000
82 L21_hL 1 DOPE H2V 82 0.04286100 1.008000
83 L21_cD 1 DOPE C3Y 83 0.00161900 12.010000
84 L21_hL 1 DOPE H3U 84 0.01952900 1.008000
85 L21_hL 1 DOPE H3V 85 0.01952900 1.008000
86 L21_cD 1 DOPE C4Y 86 -0.02296000 12.010000
87 L21_hL 1 DOPE H4U 87 0.01813400 1.008000
88 L21_hL 1 DOPE H4V 88 0.01813400 1.008000
89 L21_cD 1 DOPE C5Y 89 -0.01669200 12.010000
90 L21_hL 1 DOPE H5U 90 0.00869000 1.008000
91 L21_hL 1 DOPE H5V 91 0.00869000 1.008000
92 L21_cD 1 DOPE C6Y 92 -0.02378900 12.010000
93 L21_hL 1 DOPE H6U 93 0.00926600 1.008000
94 L21_hL 1 DOPE H6V 94 0.00926600 1.008000
95 L21_cD 1 DOPE C7Y 95 -0.01749500 12.010000
96 L21_hL 1 DOPE H7U 96 0.01959800 1.008000
97 L21_hL 1 DOPE H7V 97 0.01959800 1.008000
98 L21_cD 1 DOPE C8Y 98 0.03177500 12.010000
99 L21_hL 1 DOPE H8U 99 0.03268500 1.008000
100 L21_hL 1 DOPE H8V 100 0.03268500 1.008000
101 L21_cB 1 DOPE C9Y 101 -0.24422800 12.010000
102 L21_hB 1 DOPE H9U 102 0.13151200 1.008000
103 L21_cB 1 DOPE C10Y 103 -0.23928400 12.010000
104 L21_hB 1 DOPE H10U 104 0.12687800 1.008000
105 L21_cD 1 DOPE C11Y 105 0.02905900 12.010000
106 L21_hL 1 DOPE H11U 106 0.03353100 1.008000
107 L21_hL 1 DOPE H11V 107 0.03353100 1.008000
108 L21_cD 1 DOPE C12Y 108 -0.02635300 12.010000
109 L21_hL 1 DOPE H12U 109 0.01971700 1.008000
110 L21_hL 1 DOPE H12V 110 0.01971700 1.008000
111 L21_cD 1 DOPE C13Y 111 -0.01825700 12.010000
112 L21_hL 1 DOPE H13U 112 0.01380000 1.008000
113 L21_hL 1 DOPE H13V 113 0.01380000 1.008000
114 L21_cD 1 DOPE C14Y 114 -0.02484900 12.010000
115 L21_hL 1 DOPE H14U 115 0.00857200 1.008000
116 L21_hL 1 DOPE H14V 116 0.00857200 1.008000
117 L21_cD 1 DOPE C15Y 117 -0.02324700 12.010000
118 L21_hL 1 DOPE H15U 118 0.01040300 1.008000
119 L21_hL 1 DOPE H15V 119 0.01040300 1.008000
120 L21_cD 1 DOPE C16Y 120 -0.01248800 12.010000
121 L21_hL 1 DOPE H16U 121 0.01365900 1.008000
122 L21_hL 1 DOPE H16V 122 0.01365900 1.008000
123 L21_cD 1 DOPE C17Y 123 0.00868400 12.010000
124 L21_hL 1 DOPE H17U 124 0.01002600 1.008000
125 L21_hL 1 DOPE H17V 125 0.01002600 1.008000
126 L21_cD 1 DOPE C18Y 126 -0.11729000 12.010000
127 L21_hL 1 DOPE H18U 127 0.02662700 1.008000
128 L21_hL 1 DOPE H18V 128 0.02662700 1.008000
129 L21_hL 1 DOPE H18W 129 0.02662700 1.008000

[ bonds ]
;    ai     aj funct         c0         c1         c2         c3
     44     47     1   0.15350 253634.080000
     41     44     1   0.15350 253634.080000
     38     41     1   0.15350 253634.080000
     35     38     1   0.15350 253634.080000
     32     35     1   0.15350 253634.080000
     29     32     1   0.15350 253634.080000
     26     29     1   0.15350 253634.080000
     24     26     1   0.15080 274721.440000
     22     24     1   0.13240 493460.960000
     19     22     1   0.15080 274721.440000
     16     19     1   0.15350 253634.080000
     13     16     1   0.15350 253634.080000
     10     13     1   0.15350 253634.080000
      7     10     1   0.15350 253634.080000
      4      7     1   0.15350 253634.080000
      1      4     1   0.15350 253634.080000
      1     51     1   0.15080 274721.440000
     78     79     1   0.12140 542246.400000
     78     80     1   0.15080 274721.440000
     77     78     1   0.13430 344175.840000
     68     71     1   0.14990 245684.480000
     65     68     1   0.15350 253634.080000
     64     65     1   0.14390 252295.200000
     63     64     1   0.16100 192464.000000
     63     75     1   0.14800 439320.000000
     63     76     1   0.14800 439320.000000
     62     63     1   0.16100 192464.000000
     59     62     1   0.14390 252295.200000
     57     59     1   0.15350 253634.080000
     57     77     1   0.14390 252295.200000
     54     57     1   0.15350 253634.080000
     53     54     1   0.14390 252295.200000
     51     52     1   0.12140 542246.400000
     51     53     1   0.13430 344175.840000
    123    126     1   0.15350 253634.080000
    120    123     1   0.15350 253634.080000
    117    120     1   0.15350 253634.080000
    114    117     1   0.15350 253634.080000
    111    114     1   0.15350 253634.080000
    108    111     1   0.15350 253634.080000
    105    108     1   0.15350 253634.080000
    103    105     1   0.15080 274721.440000
    101    103     1   0.13240 493460.960000
     98    101     1   0.15080 274721.440000
     95     98     1   0.15350 253634.080000
     92     95     1   0.15350 253634.080000
     89     92     1   0.15350 253634.080000
     86     89     1   0.15350 253634.080000
     83     86     1   0.15350 253634.080000
     80     83     1   0.15350 253634.080000
     47     48     1   0.10920 282252.640000
     47     49     1   0.10920 282252.640000
     47     50     1   0.10920 282252.640000
     44     45     1   0.10920 282252.640000
     44     46     1   0.10920 282252.640000
     41     42     1   0.10920 282252.640000
     41     43     1   0.10920 282252.640000
     38     39     1   0.10920 282252.640000
     38     40     1   0.10920 282252.640000
     35     36     1   0.10920 282252.640000
     35     37     1   0.10920 282252.640000
     32     33     1   0.10920 282252.640000
     32     34     1   0.10920 282252.640000
     29     30     1   0.10920 282252.640000
     29     31     1   0.10920 282252.640000
     26     27     1   0.10920 282252.640000
     26     28     1   0.10920 282252.640000
     24     25     1   0.10870 288110.240000
     22     23     1   0.10870 288110.240000
     19     20     1   0.10920 282252.640000
     19     21     1   0.10920 282252.640000
     16     17     1   0.10920 282252.640000
     16     18     1   0.10920 282252.640000
     13     14     1   0.10920 282252.640000
     13     15     1   0.10920 282252.640000
     10     11     1   0.10920 282252.640000
     10     12     1   0.10920 282252.640000
      7      8     1   0.10920 282252.640000
      7      9     1   0.10920 282252.640000
      4      5     1   0.10920 282252.640000
      4      6     1   0.10920 282252.640000
      1      2     1   0.10920 282252.640000
      1      3     1   0.10920 282252.640000
     71     72     1   0.10330 308779.200000
     71     73     1   0.10330 308779.200000
     71     74     1   0.10330 308779.200000
     68     69     1   0.10910 283424.160000
     68     70     1   0.10910 283424.160000
     65     66     1   0.10930 281081.120000
     65     67     1   0.10930 281081.120000
     59     60     1   0.10930 281081.120000
     59     61     1   0.10930 281081.120000
     57     58     1   0.10930 281081.120000
     54     55     1   0.10930 281081.120000
     54     56     1   0.10930 281081.120000
    126    127     1   0.10920 282252.640000
    126    128     1   0.10920 282252.640000
    126    129     1   0.10920 282252.640000
    123    124     1   0.10920 282252.640000
    123    125     1   0.10920 282252.640000
    120    121     1   0.10920 282252.640000
    120    122     1   0.10920 282252.640000
    117    118     1   0.10920 282252.640000
    117    119     1   0.10920 282252.640000
    114    115     1   0.10920 282252.640000
    114    116     1   0.10920 282252.640000
    111    112     1   0.10920 282252.640000
    111    113     1   0.10920 282252.640000
    108    109     1   0.10920 282252.640000
    108    110     1   0.10920 282252.640000
    105    106     1   0.10920 282252.640000
    105    107     1   0.10920 282252.640000
    103    104     1   0.10870 288110.240000
    101    102     1   0.10870 288110.240000
     98     99     1   0.10920 282252.640000
     98    100     1   0.10920 282252.640000
     95     96     1   0.10920 282252.640000
     95     97     1   0.10920 282252.640000
     92     93     1   0.10920 282252.640000
     92     94     1   0.10920 282252.640000
     89     90     1   0.10920 282252.640000
     89     91     1   0.10920 282252.640000
     86     87     1   0.10920 282252.640000
     86     88     1   0.10920 282252.640000
     83     84     1   0.10920 282252.640000
     83     85     1   0.10920 282252.640000
     80     81     1   0.10920 282252.640000
     80     82     1   0.10920 282252.640000


[ pairs ]
; ai aj funct fudgeQQ qi qj sigma epsilon; source-specific LJ and charge scaling
1 8 2 0.83333333333333 -0.14341799992317 0.018133999989024 0.30005468824211 0.069194303392389
1 9 2 0.83333333333333 -0.14341799992317 0.018133999989024 0.30005468824211 0.069194303392389
1 10 2 0.83333333333333 -0.14341799992317 -0.016692000021951 0.33996695084507 0.076288266607901
1 54 2 0.83333333333333 -0.14341799992317 0.27377599973659 0.33996695084507 0.2288647998237
2 5 2 0.83333333333333 0.042860999983537 0.019529000016463 0.26014242576773 0.020919999936173
2 6 2 0.83333333333333 0.042860999983537 0.019529000016463 0.26014242576773 0.020919999936173
2 7 2 0.83333333333333 0.042860999983537 -0.02296 0.30005468824211 0.069194303392389
2 52 2 0.83333333333333 0.042860999983537 -0.65080200084512 0.27806730790153 0.095867483596702
2 53 2 0.83333333333333 0.042860999983537 -0.59382599891342 0.2800718300513 0.086255369632554
3 5 2 0.83333333333333 0.042860999983537 0.019529000016463 0.26014242576773 0.020919999936173
3 6 2 0.83333333333333 0.042860999983537 0.019529000016463 0.26014242576773 0.020919999936173
3 7 2 0.83333333333333 0.042860999983537 -0.02296 0.30005468824211 0.069194303392389
3 52 2 0.83333333333333 0.042860999983537 -0.65080200084512 0.27806730790153 0.095867483596702
3 53 2 0.83333333333333 0.042860999983537 -0.59382599891342 0.2800718300513 0.086255369632554
4 11 2 0.83333333333333 0.001619 0.00869 0.30005468824211 0.069194303392389
4 12 2 0.83333333333333 0.001619 0.00869 0.30005468824211 0.069194303392389
4 13 2 0.83333333333333 0.001619 -0.023789000016463 0.33996695084507 0.076288266607901
4 52 2 0.83333333333333 0.001619 -0.65080200084512 0.31797957047595 0.31708813257529
4 53 2 0.83333333333333 0.001619 -0.59382599891342 0.31998409262799 0.28529542121767
5 8 2 0.83333333333333 0.019529000016463 0.018133999989024 0.26014242576773 0.020919999936173
5 9 2 0.83333333333333 0.019529000016463 0.018133999989024 0.26014242576773 0.020919999936173
5 10 2 0.83333333333333 0.019529000016463 -0.016692000021951 0.30005468824211 0.069194303392389
5 51 2 0.83333333333333 0.019529000016463 0.8883589996872 0.30005468825729 0.061349482798597
6 8 2 0.83333333333333 0.019529000016463 0.018133999989024 0.26014242576773 0.020919999936173
6 9 2 0.83333333333333 0.019529000016463 0.018133999989024 0.26014242576773 0.020919999936173
6 10 2 0.83333333333333 0.019529000016463 -0.016692000021951 0.30005468824211 0.069194303392389
6 51 2 0.83333333333333 0.019529000016463 0.8883589996872 0.30005468825729 0.061349482798597
7 14 2 0.83333333333333 -0.02296 0.0092660000109756 0.30005468824211 0.069194303392389
7 15 2 0.83333333333333 -0.02296 0.0092660000109756 0.30005468824211 0.069194303392389
7 16 2 0.83333333333333 -0.02296 -0.017495000027439 0.33996695084507 0.076288266607901
7 51 2 0.83333333333333 -0.02296 0.8883589996872 0.33996695087407 0.20291752963184
8 11 2 0.83333333333333 0.018133999989024 0.00869 0.26014242576773 0.020919999936173
8 12 2 0.83333333333333 0.018133999989024 0.00869 0.26014242576773 0.020919999936173
8 13 2 0.83333333333333 0.018133999989024 -0.023789000016463 0.30005468824211 0.069194303392389
9 11 2 0.83333333333333 0.018133999989024 0.00869 0.26014242576773 0.020919999936173
9 12 2 0.83333333333333 0.018133999989024 0.00869 0.26014242576773 0.020919999936173
9 13 2 0.83333333333333 0.018133999989024 -0.023789000016463 0.30005468824211 0.069194303392389
10 17 2 0.83333333333333 -0.016692000021951 0.019597999978049 0.30005468824211 0.069194303392389
10 18 2 0.83333333333333 -0.016692000021951 0.019597999978049 0.30005468824211 0.069194303392389
10 19 2 0.83333333333333 -0.016692000021951 0.031775000027439 0.33996695084507 0.076288266607901
11 14 2 0.83333333333333 0.00869 0.0092660000109756 0.26014242576773 0.020919999936173
11 15 2 0.83333333333333 0.00869 0.0092660000109756 0.26014242576773 0.020919999936173
11 16 2 0.83333333333333 0.00869 -0.017495000027439 0.30005468824211 0.069194303392389
12 14 2 0.83333333333333 0.00869 0.0092660000109756 0.26014242576773 0.020919999936173
12 15 2 0.83333333333333 0.00869 0.0092660000109756 0.26014242576773 0.020919999936173
12 16 2 0.83333333333333 0.00869 -0.017495000027439 0.30005468824211 0.069194303392389
13 20 2 0.83333333333333 -0.023789000016463 0.032685000027439 0.30005468824211 0.069194303392389
13 21 2 0.83333333333333 -0.023789000016463 0.032685000027439 0.30005468824211 0.069194303392389
13 22 2 0.83333333333333 -0.023789000016463 -0.24422799975854 0.33996695087407 0.20291752963184
14 17 2 0.83333333333333 0.0092660000109756 0.019597999978049 0.26014242576773 0.020919999936173
14 18 2 0.83333333333333 0.0092660000109756 0.019597999978049 0.26014242576773 0.020919999936173
14 19 2 0.83333333333333 0.0092660000109756 0.031775000027439 0.30005468824211 0.069194303392389
15 17 2 0.83333333333333 0.0092660000109756 0.019597999978049 0.26014242576773 0.020919999936173
15 18 2 0.83333333333333 0.0092660000109756 0.019597999978049 0.26014242576773 0.020919999936173
15 19 2 0.83333333333333 0.0092660000109756 0.031775000027439 0.30005468824211 0.069194303392389
16 23 2 0.83333333333333 -0.017495000027439 0.13151200013171 0.28134581515096 0.057892107742859
16 24 2 0.83333333333333 -0.017495000027439 -0.23928399982439 0.33996695087407 0.20291752963184
17 20 2 0.83333333333333 0.019597999978049 0.032685000027439 0.26014242576773 0.020919999936173
17 21 2 0.83333333333333 0.019597999978049 0.032685000027439 0.26014242576773 0.020919999936173
17 22 2 0.83333333333333 0.019597999978049 -0.24422799975854 0.30005468825729 0.061349482798597
18 20 2 0.83333333333333 0.019597999978049 0.032685000027439 0.26014242576773 0.020919999936173
18 21 2 0.83333333333333 0.019597999978049 0.032685000027439 0.26014242576773 0.020919999936173
18 22 2 0.83333333333333 0.019597999978049 -0.24422799975854 0.30005468825729 0.061349482798597
19 25 2 0.83333333333333 0.031775000027439 0.12687800003293 0.28134581515096 0.057892107742859
19 26 2 0.83333333333333 0.031775000027439 0.029059000016463 0.33996695084507 0.2288647998237
20 23 2 0.83333333333333 0.032685000027439 0.13151200013171 0.24143355271439 0.017502927720476
20 24 2 0.83333333333333 0.032685000027439 -0.23928399982439 0.30005468825729 0.061349482798597
21 23 2 0.83333333333333 0.032685000027439 0.13151200013171 0.24143355271439 0.017502927720476
21 24 2 0.83333333333333 0.032685000027439 -0.23928399982439 0.30005468825729 0.061349482798597
22 27 2 0.83333333333333 -0.24422799975854 0.033530999983537 0.30005468825729 0.061349482798597
22 28 2 0.83333333333333 -0.24422799975854 0.033530999983537 0.30005468825729 0.061349482798597
22 29 2 0.83333333333333 -0.24422799975854 -0.026353000005488 0.33996695087407 0.20291752963184
23 25 2 0.83333333333333 0.13151200013171 0.12687800003293 0.22272467949703 0.014644000015013
23 26 2 0.83333333333333 0.13151200013171 0.029059000016463 0.28134581515096 0.057892107742859
24 30 2 0.83333333333333 -0.23928399982439 0.019716999994512 0.30005468825729 0.061349482798597
24 31 2 0.83333333333333 -0.23928399982439 0.019716999994512 0.30005468825729 0.061349482798597
24 32 2 0.83333333333333 -0.23928399982439 -0.018256999994512 0.33996695087407 0.20291752963184
25 27 2 0.83333333333333 0.12687800003293 0.033530999983537 0.24143355271439 0.017502927720476
25 28 2 0.83333333333333 0.12687800003293 0.033530999983537 0.24143355271439 0.017502927720476
25 29 2 0.83333333333333 0.12687800003293 -0.026353000005488 0.28134581515096 0.057892107742859
26 33 2 0.83333333333333 0.029059000016463 0.0138 0.30005468824211 0.069194303392389
26 34 2 0.83333333333333 0.029059000016463 0.0138 0.30005468824211 0.069194303392389
26 35 2 0.83333333333333 0.029059000016463 -0.024849000016463 0.33996695084507 0.076288266607901
27 30 2 0.83333333333333 0.033530999983537 0.019716999994512 0.26014242576773 0.020919999936173
27 31 2 0.83333333333333 0.033530999983537 0.019716999994512 0.26014242576773 0.020919999936173
27 32 2 0.83333333333333 0.033530999983537 -0.018256999994512 0.30005468824211 0.069194303392389
28 30 2 0.83333333333333 0.033530999983537 0.019716999994512 0.26014242576773 0.020919999936173
28 31 2 0.83333333333333 0.033530999983537 0.019716999994512 0.26014242576773 0.020919999936173
28 32 2 0.83333333333333 0.033530999983537 -0.018256999994512 0.30005468824211 0.069194303392389
29 36 2 0.83333333333333 -0.026353000005488 0.0085720000219511 0.30005468824211 0.069194303392389
29 37 2 0.83333333333333 -0.026353000005488 0.0085720000219511 0.30005468824211 0.069194303392389
29 38 2 0.83333333333333 -0.026353000005488 -0.023246999994512 0.33996695084507 0.076288266607901
30 33 2 0.83333333333333 0.019716999994512 0.0138 0.26014242576773 0.020919999936173
30 34 2 0.83333333333333 0.019716999994512 0.0138 0.26014242576773 0.020919999936173
30 35 2 0.83333333333333 0.019716999994512 -0.024849000016463 0.30005468824211 0.069194303392389
31 33 2 0.83333333333333 0.019716999994512 0.0138 0.26014242576773 0.020919999936173
31 34 2 0.83333333333333 0.019716999994512 0.0138 0.26014242576773 0.020919999936173
31 35 2 0.83333333333333 0.019716999994512 -0.024849000016463 0.30005468824211 0.069194303392389
32 39 2 0.83333333333333 -0.018256999994512 0.010403000005488 0.30005468824211 0.069194303392389
32 40 2 0.83333333333333 -0.018256999994512 0.010403000005488 0.30005468824211 0.069194303392389
32 41 2 0.83333333333333 -0.018256999994512 -0.012487999978049 0.33996695084507 0.076288266607901
33 36 2 0.83333333333333 0.0138 0.0085720000219511 0.26014242576773 0.020919999936173
33 37 2 0.83333333333333 0.0138 0.0085720000219511 0.26014242576773 0.020919999936173
33 38 2 0.83333333333333 0.0138 -0.023246999994512 0.30005468824211 0.069194303392389
34 36 2 0.83333333333333 0.0138 0.0085720000219511 0.26014242576773 0.020919999936173
34 37 2 0.83333333333333 0.0138 0.0085720000219511 0.26014242576773 0.020919999936173
34 38 2 0.83333333333333 0.0138 -0.023246999994512 0.30005468824211 0.069194303392389
35 42 2 0.83333333333333 -0.024849000016463 0.013659000016463 0.30005468824211 0.069194303392389
35 43 2 0.83333333333333 -0.024849000016463 0.013659000016463 0.30005468824211 0.069194303392389
35 44 2 0.83333333333333 -0.024849000016463 0.0086839999890244 0.33996695084507 0.076288266607901
36 39 2 0.83333333333333 0.0085720000219511 0.010403000005488 0.26014242576773 0.020919999936173
36 40 2 0.83333333333333 0.0085720000219511 0.010403000005488 0.26014242576773 0.020919999936173
36 41 2 0.83333333333333 0.0085720000219511 -0.012487999978049 0.30005468824211 0.069194303392389
37 39 2 0.83333333333333 0.0085720000219511 0.010403000005488 0.26014242576773 0.020919999936173
37 40 2 0.83333333333333 0.0085720000219511 0.010403000005488 0.26014242576773 0.020919999936173
37 41 2 0.83333333333333 0.0085720000219511 -0.012487999978049 0.30005468824211 0.069194303392389
38 45 2 0.83333333333333 -0.023246999994512 0.010026000010976 0.30005468824211 0.069194303392389
38 46 2 0.83333333333333 -0.023246999994512 0.010026000010976 0.30005468824211 0.069194303392389
38 47 2 0.83333333333333 -0.023246999994512 -0.11729000016463 0.33996695084507 0.076288266607901
39 42 2 0.83333333333333 0.010403000005488 0.013659000016463 0.26014242576773 0.020919999936173
39 43 2 0.83333333333333 0.010403000005488 0.013659000016463 0.26014242576773 0.020919999936173
39 44 2 0.83333333333333 0.010403000005488 0.0086839999890244 0.30005468824211 0.069194303392389
40 42 2 0.83333333333333 0.010403000005488 0.013659000016463 0.26014242576773 0.020919999936173
40 43 2 0.83333333333333 0.010403000005488 0.013659000016463 0.26014242576773 0.020919999936173
40 44 2 0.83333333333333 0.010403000005488 0.0086839999890244 0.30005468824211 0.069194303392389
41 48 2 0.83333333333333 -0.012487999978049 0.026626999994512 0.30005468824211 0.069194303392389
41 49 2 0.83333333333333 -0.012487999978049 0.026626999994512 0.30005468824211 0.069194303392389
41 50 2 0.83333333333333 -0.012487999978049 0.026626999994512 0.30005468824211 0.069194303392389
42 45 2 0.83333333333333 0.013659000016463 0.010026000010976 0.26014242576773 0.020919999936173
42 46 2 0.83333333333333 0.013659000016463 0.010026000010976 0.26014242576773 0.020919999936173
42 47 2 0.83333333333333 0.013659000016463 -0.11729000016463 0.30005468824211 0.069194303392389
43 45 2 0.83333333333333 0.013659000016463 0.010026000010976 0.26014242576773 0.020919999936173
43 46 2 0.83333333333333 0.013659000016463 0.010026000010976 0.26014242576773 0.020919999936173
43 47 2 0.83333333333333 0.013659000016463 -0.11729000016463 0.30005468824211 0.069194303392389
45 48 2 0.83333333333333 0.010026000010976 0.026626999994512 0.26014242576773 0.020919999936173
45 49 2 0.83333333333333 0.010026000010976 0.026626999994512 0.26014242576773 0.020919999936173
45 50 2 0.83333333333333 0.010026000010976 0.026626999994512 0.26014242576773 0.020919999936173
46 48 2 0.83333333333333 0.010026000010976 0.026626999994512 0.26014242576773 0.020919999936173
46 49 2 0.83333333333333 0.010026000010976 0.026626999994512 0.26014242576773 0.020919999936173
46 50 2 0.83333333333333 0.010026000010976 0.026626999994512 0.26014242576773 0.020919999936173
51 55 2 0.83333333333333 0.8883589996872 0.044573999989024 0.29355112761526 0.076870681673027
51 56 2 0.83333333333333 0.8883589996872 0.044573999989024 0.29355112761526 0.076870681673027
51 57 2 0.83333333333333 0.8883589996872 0.3390040000439 0.33996695087407 0.20291752963184
52 54 2 0.83333333333333 -0.65080200084512 0.27377599973659 0.31797957047595 0.31708813257529
53 58 2 0.83333333333333 -0.59382599891342 0.032843000005488 0.27356826939641 0.10807766839674
53 59 2 0.83333333333333 -0.59382599891342 0.040966999994512 0.31998409262799 0.28529542121767
53 77 2 0.83333333333333 -0.59382599891342 -0.57547999978049 0.30000123432245 0.35564000022068
54 60 2 0.83333333333333 0.27377599973659 0.090994000208536 0.29355112776543 0.086700213146672
54 61 2 0.83333333333333 0.27377599973659 0.090994000208536 0.29355112776543 0.086700213146672
54 62 2 0.83333333333333 0.27377599973659 -0.54662299984085 0.31998409262799 0.28529542121767
54 78 2 0.83333333333333 0.27377599973659 0.8693400009878 0.33996695087407 0.20291752963184
55 58 2 0.83333333333333 0.044573999989024 0.032843000005488 0.24713530426422 0.032844400205981
55 59 2 0.83333333333333 0.044573999989024 0.040966999994512 0.29355112776543 0.086700213146672
55 77 2 0.83333333333333 0.044573999989024 -0.57547999978049 0.27356826939641 0.10807766839674
56 58 2 0.83333333333333 0.044573999989024 0.032843000005488 0.24713530426422 0.032844400205981
56 59 2 0.83333333333333 0.044573999989024 0.040966999994512 0.29355112776543 0.086700213146672
56 77 2 0.83333333333333 0.044573999989024 -0.57547999978049 0.27356826939641 0.10807766839674
57 63 2 0.83333333333333 0.3390040000439 1.3736559984195 0.35707220617836 0.30944633210394
57 79 2 0.83333333333333 0.3390040000439 -0.64919899793111 0.31797957047595 0.31708813257529
57 80 2 0.83333333333333 0.3390040000439 -0.14341799992317 0.33996695084507 0.2288647998237
58 60 2 0.83333333333333 0.032843000005488 0.090994000208536 0.24713530426422 0.032844400205981
58 61 2 0.83333333333333 0.032843000005488 0.090994000208536 0.24713530426422 0.032844400205981
58 62 2 0.83333333333333 0.032843000005488 -0.54662299984085 0.27356826939641 0.10807766839674
58 78 2 0.83333333333333 0.032843000005488 0.8693400009878 0.29355112761526 0.076870681673027
59 64 2 0.83333333333333 0.040966999994512 -0.51454200018658 0.31998409262799 0.28529542121767
59 75 2 0.83333333333333 0.040966999994512 -0.8774470017506 0.31797957047595 0.31708813257529
59 76 2 0.83333333333333 0.040966999994512 -0.8774470017506 0.31797957047595 0.31708813257529
59 78 2 0.83333333333333 0.040966999994512 0.8693400009878 0.33996695087407 0.20291752963184
60 63 2 0.83333333333333 0.090994000208536 1.3736559984195 0.31065638299277 0.11722669057481
60 77 2 0.83333333333333 0.090994000208536 -0.57547999978049 0.27356826939641 0.10807766839674
61 63 2 0.83333333333333 0.090994000208536 1.3736559984195 0.31065638299277 0.11722669057481
61 77 2 0.83333333333333 0.090994000208536 -0.57547999978049 0.27356826939641 0.10807766839674
62 65 2 0.83333333333333 -0.54662299984085 0.075159000235975 0.31998409262799 0.28529542121767
62 77 2 0.83333333333333 -0.54662299984085 -0.57547999978049 0.30000123432245 0.35564000022068
63 66 2 0.83333333333333 1.3736559984195 0.091516000175609 0.31065638299277 0.11722669057481
63 67 2 0.83333333333333 1.3736559984195 0.091516000175609 0.31065638299277 0.11722669057481
63 68 2 0.83333333333333 1.3736559984195 0.077318999796952 0.35707220617836 0.30944633210394
64 69 2 0.83333333333333 -0.51454200018658 0.091630000054878 0.24799947608237 0.10807766872372
64 70 2 0.83333333333333 -0.51454200018658 0.091630000054878 0.24799947608237 0.10807766872372
64 71 2 0.83333333333333 -0.51454200018658 -0.36813199980244 0.31250054330942 0.35564000053052
65 72 2 0.83333333333333 0.075159000235975 0.34854899985183 0.22343739849812 0.086700213704004
65 73 2 0.83333333333333 0.075159000235975 0.34854899985183 0.22343739849812 0.086700213704004
65 74 2 0.83333333333333 0.075159000235975 0.34854899985183 0.22343739849812 0.086700213704004
65 75 2 0.83333333333333 0.075159000235975 -0.8774470017506 0.31797957047595 0.31708813257529
65 76 2 0.83333333333333 0.075159000235975 -0.8774470017506 0.31797957047595 0.31708813257529
66 69 2 0.83333333333333 0.091516000175609 0.091630000054878 0.22156651118302 0.032844400019638
66 70 2 0.83333333333333 0.091516000175609 0.091630000054878 0.22156651118302 0.032844400019638
66 71 2 0.83333333333333 0.091516000175609 -0.36813199980244 0.2860675785499 0.10807766765337
67 69 2 0.83333333333333 0.091516000175609 0.091630000054878 0.22156651118302 0.032844400019638
67 70 2 0.83333333333333 0.091516000175609 0.091630000054878 0.22156651118302 0.032844400019638
67 71 2 0.83333333333333 0.091516000175609 -0.36813199980244 0.2860675785499 0.10807766765337
69 72 2 0.83333333333333 0.091630000054878 0.34854899985183 0.1514527820581 0.032844400050852
69 73 2 0.83333333333333 0.091630000054878 0.34854899985183 0.1514527820581 0.032844400050852
69 74 2 0.83333333333333 0.091630000054878 0.34854899985183 0.1514527820581 0.032844400050852
70 72 2 0.83333333333333 0.091630000054878 0.34854899985183 0.1514527820581 0.032844400050852
70 73 2 0.83333333333333 0.091630000054878 0.34854899985183 0.1514527820581 0.032844400050852
70 74 2 0.83333333333333 0.091630000054878 0.34854899985183 0.1514527820581 0.032844400050852
77 81 2 0.83333333333333 -0.57547999978049 0.042860999983537 0.2800718300513 0.086255369632554
77 82 2 0.83333333333333 -0.57547999978049 0.042860999983537 0.2800718300513 0.086255369632554
77 83 2 0.83333333333333 -0.57547999978049 0.001619 0.31998409262799 0.28529542121767
78 84 2 0.83333333333333 0.8693400009878 0.019529000016463 0.30005468825729 0.061349482798597
78 85 2 0.83333333333333 0.8693400009878 0.019529000016463 0.30005468825729 0.061349482798597
78 86 2 0.83333333333333 0.8693400009878 -0.02296 0.33996695087407 0.20291752963184
79 81 2 0.83333333333333 -0.64919899793111 0.042860999983537 0.27806730790153 0.095867483596702
79 82 2 0.83333333333333 -0.64919899793111 0.042860999983537 0.27806730790153 0.095867483596702
79 83 2 0.83333333333333 -0.64919899793111 0.001619 0.31797957047595 0.31708813257529
80 87 2 0.83333333333333 -0.14341799992317 0.018133999989024 0.30005468824211 0.069194303392389
80 88 2 0.83333333333333 -0.14341799992317 0.018133999989024 0.30005468824211 0.069194303392389
80 89 2 0.83333333333333 -0.14341799992317 -0.016692000021951 0.33996695084507 0.076288266607901
81 84 2 0.83333333333333 0.042860999983537 0.019529000016463 0.26014242576773 0.020919999936173
81 85 2 0.83333333333333 0.042860999983537 0.019529000016463 0.26014242576773 0.020919999936173
81 86 2 0.83333333333333 0.042860999983537 -0.02296 0.30005468824211 0.069194303392389
82 84 2 0.83333333333333 0.042860999983537 0.019529000016463 0.26014242576773 0.020919999936173
82 85 2 0.83333333333333 0.042860999983537 0.019529000016463 0.26014242576773 0.020919999936173
82 86 2 0.83333333333333 0.042860999983537 -0.02296 0.30005468824211 0.069194303392389
83 90 2 0.83333333333333 0.001619 0.00869 0.30005468824211 0.069194303392389
83 91 2 0.83333333333333 0.001619 0.00869 0.30005468824211 0.069194303392389
83 92 2 0.83333333333333 0.001619 -0.023789000016463 0.33996695084507 0.076288266607901
84 87 2 0.83333333333333 0.019529000016463 0.018133999989024 0.26014242576773 0.020919999936173
84 88 2 0.83333333333333 0.019529000016463 0.018133999989024 0.26014242576773 0.020919999936173
84 89 2 0.83333333333333 0.019529000016463 -0.016692000021951 0.30005468824211 0.069194303392389
85 87 2 0.83333333333333 0.019529000016463 0.018133999989024 0.26014242576773 0.020919999936173
85 88 2 0.83333333333333 0.019529000016463 0.018133999989024 0.26014242576773 0.020919999936173
85 89 2 0.83333333333333 0.019529000016463 -0.016692000021951 0.30005468824211 0.069194303392389
86 93 2 0.83333333333333 -0.02296 0.0092660000109756 0.30005468824211 0.069194303392389
86 94 2 0.83333333333333 -0.02296 0.0092660000109756 0.30005468824211 0.069194303392389
86 95 2 0.83333333333333 -0.02296 -0.017495000027439 0.33996695084507 0.076288266607901
87 90 2 0.83333333333333 0.018133999989024 0.00869 0.26014242576773 0.020919999936173
87 91 2 0.83333333333333 0.018133999989024 0.00869 0.26014242576773 0.020919999936173
87 92 2 0.83333333333333 0.018133999989024 -0.023789000016463 0.30005468824211 0.069194303392389
88 90 2 0.83333333333333 0.018133999989024 0.00869 0.26014242576773 0.020919999936173
88 91 2 0.83333333333333 0.018133999989024 0.00869 0.26014242576773 0.020919999936173
88 92 2 0.83333333333333 0.018133999989024 -0.023789000016463 0.30005468824211 0.069194303392389
89 96 2 0.83333333333333 -0.016692000021951 0.019597999978049 0.30005468824211 0.069194303392389
89 97 2 0.83333333333333 -0.016692000021951 0.019597999978049 0.30005468824211 0.069194303392389
89 98 2 0.83333333333333 -0.016692000021951 0.031775000027439 0.33996695084507 0.076288266607901
90 93 2 0.83333333333333 0.00869 0.0092660000109756 0.26014242576773 0.020919999936173
90 94 2 0.83333333333333 0.00869 0.0092660000109756 0.26014242576773 0.020919999936173
90 95 2 0.83333333333333 0.00869 -0.017495000027439 0.30005468824211 0.069194303392389
91 93 2 0.83333333333333 0.00869 0.0092660000109756 0.26014242576773 0.020919999936173
91 94 2 0.83333333333333 0.00869 0.0092660000109756 0.26014242576773 0.020919999936173
91 95 2 0.83333333333333 0.00869 -0.017495000027439 0.30005468824211 0.069194303392389
92 99 2 0.83333333333333 -0.023789000016463 0.032685000027439 0.30005468824211 0.069194303392389
92 100 2 0.83333333333333 -0.023789000016463 0.032685000027439 0.30005468824211 0.069194303392389
92 101 2 0.83333333333333 -0.023789000016463 -0.24422799975854 0.33996695087407 0.20291752963184
93 96 2 0.83333333333333 0.0092660000109756 0.019597999978049 0.26014242576773 0.020919999936173
93 97 2 0.83333333333333 0.0092660000109756 0.019597999978049 0.26014242576773 0.020919999936173
93 98 2 0.83333333333333 0.0092660000109756 0.031775000027439 0.30005468824211 0.069194303392389
94 96 2 0.83333333333333 0.0092660000109756 0.019597999978049 0.26014242576773 0.020919999936173
94 97 2 0.83333333333333 0.0092660000109756 0.019597999978049 0.26014242576773 0.020919999936173
94 98 2 0.83333333333333 0.0092660000109756 0.031775000027439 0.30005468824211 0.069194303392389
95 102 2 0.83333333333333 -0.017495000027439 0.13151200013171 0.28134581515096 0.057892107742859
95 103 2 0.83333333333333 -0.017495000027439 -0.23928399982439 0.33996695087407 0.20291752963184
96 99 2 0.83333333333333 0.019597999978049 0.032685000027439 0.26014242576773 0.020919999936173
96 100 2 0.83333333333333 0.019597999978049 0.032685000027439 0.26014242576773 0.020919999936173
96 101 2 0.83333333333333 0.019597999978049 -0.24422799975854 0.30005468825729 0.061349482798597
97 99 2 0.83333333333333 0.019597999978049 0.032685000027439 0.26014242576773 0.020919999936173
97 100 2 0.83333333333333 0.019597999978049 0.032685000027439 0.26014242576773 0.020919999936173
97 101 2 0.83333333333333 0.019597999978049 -0.24422799975854 0.30005468825729 0.061349482798597
98 104 2 0.83333333333333 0.031775000027439 0.12687800003293 0.28134581515096 0.057892107742859
98 105 2 0.83333333333333 0.031775000027439 0.029059000016463 0.33996695084507 0.2288647998237
99 102 2 0.83333333333333 0.032685000027439 0.13151200013171 0.24143355271439 0.017502927720476
99 103 2 0.83333333333333 0.032685000027439 -0.23928399982439 0.30005468825729 0.061349482798597
100 102 2 0.83333333333333 0.032685000027439 0.13151200013171 0.24143355271439 0.017502927720476
100 103 2 0.83333333333333 0.032685000027439 -0.23928399982439 0.30005468825729 0.061349482798597
101 106 2 0.83333333333333 -0.24422799975854 0.033530999983537 0.30005468825729 0.061349482798597
101 107 2 0.83333333333333 -0.24422799975854 0.033530999983537 0.30005468825729 0.061349482798597
101 108 2 0.83333333333333 -0.24422799975854 -0.026353000005488 0.33996695087407 0.20291752963184
102 104 2 0.83333333333333 0.13151200013171 0.12687800003293 0.22272467949703 0.014644000015013
102 105 2 0.83333333333333 0.13151200013171 0.029059000016463 0.28134581515096 0.057892107742859
103 109 2 0.83333333333333 -0.23928399982439 0.019716999994512 0.30005468825729 0.061349482798597
103 110 2 0.83333333333333 -0.23928399982439 0.019716999994512 0.30005468825729 0.061349482798597
103 111 2 0.83333333333333 -0.23928399982439 -0.018256999994512 0.33996695087407 0.20291752963184
104 106 2 0.83333333333333 0.12687800003293 0.033530999983537 0.24143355271439 0.017502927720476
104 107 2 0.83333333333333 0.12687800003293 0.033530999983537 0.24143355271439 0.017502927720476
104 108 2 0.83333333333333 0.12687800003293 -0.026353000005488 0.28134581515096 0.057892107742859
105 112 2 0.83333333333333 0.029059000016463 0.0138 0.30005468824211 0.069194303392389
105 113 2 0.83333333333333 0.029059000016463 0.0138 0.30005468824211 0.069194303392389
105 114 2 0.83333333333333 0.029059000016463 -0.024849000016463 0.33996695084507 0.076288266607901
106 109 2 0.83333333333333 0.033530999983537 0.019716999994512 0.26014242576773 0.020919999936173
106 110 2 0.83333333333333 0.033530999983537 0.019716999994512 0.26014242576773 0.020919999936173
106 111 2 0.83333333333333 0.033530999983537 -0.018256999994512 0.30005468824211 0.069194303392389
107 109 2 0.83333333333333 0.033530999983537 0.019716999994512 0.26014242576773 0.020919999936173
107 110 2 0.83333333333333 0.033530999983537 0.019716999994512 0.26014242576773 0.020919999936173
107 111 2 0.83333333333333 0.033530999983537 -0.018256999994512 0.30005468824211 0.069194303392389
108 115 2 0.83333333333333 -0.026353000005488 0.0085720000219511 0.30005468824211 0.069194303392389
108 116 2 0.83333333333333 -0.026353000005488 0.0085720000219511 0.30005468824211 0.069194303392389
108 117 2 0.83333333333333 -0.026353000005488 -0.023246999994512 0.33996695084507 0.076288266607901
109 112 2 0.83333333333333 0.019716999994512 0.0138 0.26014242576773 0.020919999936173
109 113 2 0.83333333333333 0.019716999994512 0.0138 0.26014242576773 0.020919999936173
109 114 2 0.83333333333333 0.019716999994512 -0.024849000016463 0.30005468824211 0.069194303392389
110 112 2 0.83333333333333 0.019716999994512 0.0138 0.26014242576773 0.020919999936173
110 113 2 0.83333333333333 0.019716999994512 0.0138 0.26014242576773 0.020919999936173
110 114 2 0.83333333333333 0.019716999994512 -0.024849000016463 0.30005468824211 0.069194303392389
111 118 2 0.83333333333333 -0.018256999994512 0.010403000005488 0.30005468824211 0.069194303392389
111 119 2 0.83333333333333 -0.018256999994512 0.010403000005488 0.30005468824211 0.069194303392389
111 120 2 0.83333333333333 -0.018256999994512 -0.012487999978049 0.33996695084507 0.076288266607901
112 115 2 0.83333333333333 0.0138 0.0085720000219511 0.26014242576773 0.020919999936173
112 116 2 0.83333333333333 0.0138 0.0085720000219511 0.26014242576773 0.020919999936173
112 117 2 0.83333333333333 0.0138 -0.023246999994512 0.30005468824211 0.069194303392389
113 115 2 0.83333333333333 0.0138 0.0085720000219511 0.26014242576773 0.020919999936173
113 116 2 0.83333333333333 0.0138 0.0085720000219511 0.26014242576773 0.020919999936173
113 117 2 0.83333333333333 0.0138 -0.023246999994512 0.30005468824211 0.069194303392389
114 121 2 0.83333333333333 -0.024849000016463 0.013659000016463 0.30005468824211 0.069194303392389
114 122 2 0.83333333333333 -0.024849000016463 0.013659000016463 0.30005468824211 0.069194303392389
114 123 2 0.83333333333333 -0.024849000016463 0.0086839999890244 0.33996695084507 0.076288266607901
115 118 2 0.83333333333333 0.0085720000219511 0.010403000005488 0.26014242576773 0.020919999936173
115 119 2 0.83333333333333 0.0085720000219511 0.010403000005488 0.26014242576773 0.020919999936173
115 120 2 0.83333333333333 0.0085720000219511 -0.012487999978049 0.30005468824211 0.069194303392389
116 118 2 0.83333333333333 0.0085720000219511 0.010403000005488 0.26014242576773 0.020919999936173
116 119 2 0.83333333333333 0.0085720000219511 0.010403000005488 0.26014242576773 0.020919999936173
116 120 2 0.83333333333333 0.0085720000219511 -0.012487999978049 0.30005468824211 0.069194303392389
117 124 2 0.83333333333333 -0.023246999994512 0.010026000010976 0.30005468824211 0.069194303392389
117 125 2 0.83333333333333 -0.023246999994512 0.010026000010976 0.30005468824211 0.069194303392389
117 126 2 0.83333333333333 -0.023246999994512 -0.11729000016463 0.33996695084507 0.076288266607901
118 121 2 0.83333333333333 0.010403000005488 0.013659000016463 0.26014242576773 0.020919999936173
118 122 2 0.83333333333333 0.010403000005488 0.013659000016463 0.26014242576773 0.020919999936173
118 123 2 0.83333333333333 0.010403000005488 0.0086839999890244 0.30005468824211 0.069194303392389
119 121 2 0.83333333333333 0.010403000005488 0.013659000016463 0.26014242576773 0.020919999936173
119 122 2 0.83333333333333 0.010403000005488 0.013659000016463 0.26014242576773 0.020919999936173
119 123 2 0.83333333333333 0.010403000005488 0.0086839999890244 0.30005468824211 0.069194303392389
120 127 2 0.83333333333333 -0.012487999978049 0.026626999994512 0.30005468824211 0.069194303392389
120 128 2 0.83333333333333 -0.012487999978049 0.026626999994512 0.30005468824211 0.069194303392389
120 129 2 0.83333333333333 -0.012487999978049 0.026626999994512 0.30005468824211 0.069194303392389
121 124 2 0.83333333333333 0.013659000016463 0.010026000010976 0.26014242576773 0.020919999936173
121 125 2 0.83333333333333 0.013659000016463 0.010026000010976 0.26014242576773 0.020919999936173
121 126 2 0.83333333333333 0.013659000016463 -0.11729000016463 0.30005468824211 0.069194303392389
122 124 2 0.83333333333333 0.013659000016463 0.010026000010976 0.26014242576773 0.020919999936173
122 125 2 0.83333333333333 0.013659000016463 0.010026000010976 0.26014242576773 0.020919999936173
122 126 2 0.83333333333333 0.013659000016463 -0.11729000016463 0.30005468824211 0.069194303392389
124 127 2 0.83333333333333 0.010026000010976 0.026626999994512 0.26014242576773 0.020919999936173
124 128 2 0.83333333333333 0.010026000010976 0.026626999994512 0.26014242576773 0.020919999936173
124 129 2 0.83333333333333 0.010026000010976 0.026626999994512 0.26014242576773 0.020919999936173
125 127 2 0.83333333333333 0.010026000010976 0.026626999994512 0.26014242576773 0.020919999936173
125 128 2 0.83333333333333 0.010026000010976 0.026626999994512 0.26014242576773 0.020919999936173
125 129 2 0.83333333333333 0.010026000010976 0.026626999994512 0.26014242576773 0.020919999936173

[ angles ]
;    ai     aj     ak funct         c0         c1         c2         c3
     41     44     47     1   112.0500483 394.969600
     38     41     44     1   112.0500483 394.969600
     35     38     41     1   112.0500483 394.969600
     32     35     38     1   112.0500483 394.969600
     29     32     35     1   112.0500483 394.969600
     26     29     32     1   112.0500483 394.969600
     24     26     29     1   111.4400476 531.619040
     22     24     26     1   123.4200531 538.313440
     19     22     24     1   123.4200531 538.313440
     16     19     22     1   111.4400476 531.619040
     13     16     19     1   112.0500483 394.969600
     10     13     16     1   112.0500483 394.969600
      7     10     13     1   112.0500483 394.969600
      4      1     51     1   110.5300474 533.794720
      4      7     10     1   112.0500483 394.969600
      1      4      7     1   112.0500483 394.969600
      1     51     52     1   123.1100526 569.275040
      1     51     53     1   111.9600481 579.567680
     79     78     80     1   123.1100526 569.275040
     78     80     83     1   110.5300474 533.794720
     77     78     79     1   123.3300529 635.382240
     77     78     80     1   111.9600481 579.567680
     75     63     76     1   119.9000514 1171.520000
     65     68     71     1   114.3200492 539.317600
     64     63     75     1   108.2300464 836.800000
     64     63     76     1   108.2300464 836.800000
     64     65     68     1   108.4200467 567.183040
     63     64     65     1   120.5000516 836.800000
     62     63     64     1   102.6000440 753.120000
     62     63     75     1   108.2300464 836.800000
     62     63     76     1   108.2300464 836.800000
     59     57     77     1   108.4200467 567.183040
     59     62     63     1   120.5000516 836.800000
     57     59     62     1   108.4200467 567.183040
     57     77     78     1   115.1400492 532.455840
     54     57     59     1   110.6300475 528.941280
     54     57     77     1   108.4200467 567.183040
     53     54     57     1   108.4200467 567.183040
     52     51     53     1   123.3300529 635.382240
     51     53     54     1   115.1400492 532.455840
    120    123    126     1   112.0500483 394.969600
    117    120    123     1   112.0500483 394.969600
    114    117    120     1   112.0500483 394.969600
    111    114    117     1   112.0500483 394.969600
    108    111    114     1   112.0500483 394.969600
    105    108    111     1   112.0500483 394.969600
    103    105    108     1   111.4400476 531.619040
    101    103    105     1   123.4200531 538.313440
     98    101    103     1   123.4200531 538.313440
     95     98    101     1   111.4400476 531.619040
     92     95     98     1   112.0500483 394.969600
     89     92     95     1   112.0500483 394.969600
     86     89     92     1   112.0500483 394.969600
     83     86     89     1   112.0500483 394.969600
     80     83     86     1   112.0500483 394.969600
     49     47     50     1   108.3500467 329.950240
     48     47     49     1   108.3500467 329.950240
     48     47     50     1   108.3500467 329.950240
     46     44     47     1   110.0500475 388.024160
     45     44     46     1   108.3500467 329.950240
     45     44     47     1   110.0500475 388.024160
     44     47     48     1   110.0500475 388.024160
     44     47     49     1   110.0500475 388.024160
     44     47     50     1   110.0500475 388.024160
     43     41     44     1   110.0500475 388.024160
     42     41     43     1   108.3500467 329.950240
     42     41     44     1   110.0500475 388.024160
     41     44     45     1   110.0500475 388.024160
     41     44     46     1   110.0500475 388.024160
     40     38     41     1   110.0500475 388.024160
     39     38     40     1   108.3500467 329.950240
     39     38     41     1   110.0500475 388.024160
     38     41     42     1   110.0500475 388.024160
     38     41     43     1   110.0500475 388.024160
     37     35     38     1   110.0500475 388.024160
     36     35     37     1   108.3500467 329.950240
     36     35     38     1   110.0500475 388.024160
     35     38     39     1   110.0500475 388.024160
     35     38     40     1   110.0500475 388.024160
     34     32     35     1   110.0500475 388.024160
     33     32     34     1   108.3500467 329.950240
     33     32     35     1   110.0500475 388.024160
     32     35     36     1   110.0500475 388.024160
     32     35     37     1   110.0500475 388.024160
     31     29     32     1   110.0500475 388.024160
     30     29     31     1   108.3500467 329.950240
     30     29     32     1   110.0500475 388.024160
     29     32     33     1   110.0500475 388.024160
     29     32     34     1   110.0500475 388.024160
     28     26     29     1   110.0500475 388.024160
     27     26     28     1   108.3500467 329.950240
     27     26     29     1   110.0500475 388.024160
     26     29     30     1   110.0500475 388.024160
     26     29     31     1   110.0500475 388.024160
     25     24     26     1   117.3000503 382.082880
     24     26     27     1   110.4900475 393.547040
     24     26     28     1   110.4900475 393.547040
     23     22     24     1   120.9400517 418.734720
     22     24     25     1   120.9400517 418.734720
     21     19     22     1   110.4900475 393.547040
     20     19     21     1   108.3500467 329.950240
     20     19     22     1   110.4900475 393.547040
     19     22     23     1   117.3000503 382.082880
     18     16     19     1   110.0500475 388.024160
     17     16     18     1   108.3500467 329.950240
     17     16     19     1   110.0500475 388.024160
     16     19     20     1   110.0500475 388.024160
     16     19     21     1   110.0500475 388.024160
     15     13     16     1   110.0500475 388.024160
     14     13     15     1   108.3500467 329.950240
     14     13     16     1   110.0500475 388.024160
     13     16     17     1   110.0500475 388.024160
     13     16     18     1   110.0500475 388.024160
     12     10     13     1   110.0500475 388.024160
     11     10     12     1   108.3500467 329.950240
     11     10     13     1   110.0500475 388.024160
     10     13     14     1   110.0500475 388.024160
     10     13     15     1   110.0500475 388.024160
      9      7     10     1   110.0500475 388.024160
      8      7      9     1   108.3500467 329.950240
      8      7     10     1   110.0500475 388.024160
      7     10     11     1   110.0500475 388.024160
      7     10     12     1   110.0500475 388.024160
      6      4      7     1   110.0500475 388.024160
      5      4      6     1   108.3500467 329.950240
      5      4      7     1   110.0500475 388.024160
      4      7      8     1   110.0500475 388.024160
      4      7      9     1   110.0500475 388.024160
      3      1      4     1   110.0500475 388.024160
      3      1     51     1   109.6800468 394.969600
      2      1      3     1   108.3500467 329.950240
      2      1      4     1   110.0500475 388.024160
      2      1     51     1   109.6800468 394.969600
      1      4      5     1   110.0500475 388.024160
      1      4      6     1   110.0500475 388.024160
     78     80     81     1   109.6800468 394.969600
     78     80     82     1   109.6800468 394.969600
     73     71     74     1   108.1100462 339.071360
     72     71     73     1   108.1100462 339.071360
     72     71     74     1   108.1100462 339.071360
     70     68     71     1   107.9100461 410.199360
     69     68     70     1   110.7400473 326.686720
     69     68     71     1   107.9100461 410.199360
     68     71     72     1   110.1100470 386.517920
     68     71     73     1   110.1100470 386.517920
     68     71     74     1   110.1100470 386.517920
     67     65     68     1   110.0700471 387.940480
     66     65     67     1   109.5500472 327.858240
     66     65     68     1   110.0700471 387.940480
     65     68     69     1   111.7400478 385.095360
     65     68     70     1   111.7400478 385.095360
     64     65     66     1   108.8200469 425.429120
     64     65     67     1   108.8200469 425.429120
     61     59     62     1   108.8200469 425.429120
     60     59     61     1   109.5500472 327.858240
     60     59     62     1   108.8200469 425.429120
     58     57     59     1   110.0700471 387.940480
     58     57     77     1   108.8200469 425.429120
     57     59     60     1   110.0700471 387.940480
     57     59     61     1   110.0700471 387.940480
     56     54     57     1   110.0700471 387.940480
     55     54     56     1   109.5500472 327.858240
     55     54     57     1   110.0700471 387.940480
     54     57     58     1   110.0700471 387.940480
     53     54     55     1   108.8200469 425.429120
     53     54     56     1   108.8200469 425.429120
    128    126    129     1   108.3500467 329.950240
    127    126    128     1   108.3500467 329.950240
    127    126    129     1   108.3500467 329.950240
    125    123    126     1   110.0500475 388.024160
    124    123    125     1   108.3500467 329.950240
    124    123    126     1   110.0500475 388.024160
    123    126    127     1   110.0500475 388.024160
    123    126    128     1   110.0500475 388.024160
    123    126    129     1   110.0500475 388.024160
    122    120    123     1   110.0500475 388.024160
    121    120    122     1   108.3500467 329.950240
    121    120    123     1   110.0500475 388.024160
    120    123    124     1   110.0500475 388.024160
    120    123    125     1   110.0500475 388.024160
    119    117    120     1   110.0500475 388.024160
    118    117    119     1   108.3500467 329.950240
    118    117    120     1   110.0500475 388.024160
    117    120    121     1   110.0500475 388.024160
    117    120    122     1   110.0500475 388.024160
    116    114    117     1   110.0500475 388.024160
    115    114    116     1   108.3500467 329.950240
    115    114    117     1   110.0500475 388.024160
    114    117    118     1   110.0500475 388.024160
    114    117    119     1   110.0500475 388.024160
    113    111    114     1   110.0500475 388.024160
    112    111    113     1   108.3500467 329.950240
    112    111    114     1   110.0500475 388.024160
    111    114    115     1   110.0500475 388.024160
    111    114    116     1   110.0500475 388.024160
    110    108    111     1   110.0500475 388.024160
    109    108    110     1   108.3500467 329.950240
    109    108    111     1   110.0500475 388.024160
    108    111    112     1   110.0500475 388.024160
    108    111    113     1   110.0500475 388.024160
    107    105    108     1   110.0500475 388.024160
    106    105    107     1   108.3500467 329.950240
    106    105    108     1   110.0500475 388.024160
    105    108    109     1   110.0500475 388.024160
    105    108    110     1   110.0500475 388.024160
    104    103    105     1   117.3000503 382.082880
    103    105    106     1   110.4900475 393.547040
    103    105    107     1   110.4900475 393.547040
    102    101    103     1   120.9400517 418.734720
    101    103    104     1   120.9400517 418.734720
    100     98    101     1   110.4900475 393.547040
     99     98    100     1   108.3500467 329.950240
     99     98    101     1   110.4900475 393.547040
     98    101    102     1   117.3000503 382.082880
     97     95     98     1   110.0500475 388.024160
     96     95     97     1   108.3500467 329.950240
     96     95     98     1   110.0500475 388.024160
     95     98     99     1   110.0500475 388.024160
     95     98    100     1   110.0500475 388.024160
     94     92     95     1   110.0500475 388.024160
     93     92     94     1   108.3500467 329.950240
     93     92     95     1   110.0500475 388.024160
     92     95     96     1   110.0500475 388.024160
     92     95     97     1   110.0500475 388.024160
     91     89     92     1   110.0500475 388.024160
     90     89     91     1   108.3500467 329.950240
     90     89     92     1   110.0500475 388.024160
     89     92     93     1   110.0500475 388.024160
     89     92     94     1   110.0500475 388.024160
     88     86     89     1   110.0500475 388.024160
     87     86     88     1   108.3500467 329.950240
     87     86     89     1   110.0500475 388.024160
     86     89     90     1   110.0500475 388.024160
     86     89     91     1   110.0500475 388.024160
     85     83     86     1   110.0500475 388.024160
     84     83     85     1   108.3500467 329.950240
     84     83     86     1   110.0500475 388.024160
     83     86     87     1   110.0500475 388.024160
     83     86     88     1   110.0500475 388.024160
     82     80     83     1   110.0500475 388.024160
     81     80     82     1   108.3500467 329.950240
     81     80     83     1   110.0500475 388.024160
     80     83     84     1   110.0500475 388.024160
     80     83     85     1   110.0500475 388.024160


[ dihedrals ]
;    ai     aj     ak     al funct         c0         c1         c2         c3         c4         c5
     38     41     44     47     1  0.0000000  0.4184000  1
     38     41     44     47     1  0.0000000  0.4184000  2
     38     41     44     47     1  0.0000000  1.2552000  3
     38     41     44     47     1  0.0000000  0.4184000  4
     38     41     44     47     1  0.0000000  0.4184000  5
     35     38     41     44     1  0.0000000  0.4184000  1
     35     38     41     44     1  0.0000000  0.4184000  2
     35     38     41     44     1  0.0000000  1.2552000  3
     35     38     41     44     1  0.0000000  0.4184000  4
     35     38     41     44     1  0.0000000  0.4184000  5
     32     35     38     41     1  0.0000000  0.4184000  1
     32     35     38     41     1  0.0000000  0.4184000  2
     32     35     38     41     1  0.0000000  1.2552000  3
     32     35     38     41     1  0.0000000  0.4184000  4
     32     35     38     41     1  0.0000000  0.4184000  5
     29     32     35     38     1  0.0000000  0.4184000  1
     29     32     35     38     1  0.0000000  0.4184000  2
     29     32     35     38     1  0.0000000  1.2552000  3
     29     32     35     38     1  0.0000000  0.4184000  4
     29     32     35     38     1  0.0000000  0.4184000  5
     26     29     32     35     1  0.0000000  0.4184000  1
     26     29     32     35     1  0.0000000  0.4184000  2
     26     29     32     35     1  0.0000000  1.2552000  3
     26     29     32     35     1  0.0000000  0.4184000  4
     26     29     32     35     1  0.0000000  0.4184000  5
     24     26     29     32     1  0.0000000  0.0000000  1
     24     26     29     32     1  0.0000000  0.0000000  2
     24     26     29     32     1  0.0000000  2.0920000  3
     24     26     29     32     1  0.0000000  0.0000000  4
     24     26     29     32     1  0.0000000  0.4184000  5
     22     24     26     29     1  0.0000000  2.5104000  1
     22     24     26     29     1  180.0000771  1.6736000  2
     22     24     26     29     1  180.0000771  1.6736000  3
     22     24     26     29     1  180.0000771  0.8368000  4
     22     24     26     29     1  180.0000771  0.8368000  5
     19     22     24     26     1  180.0000771  7.1128000  1
     19     22     24     26     1  180.0000771  13.8072000  2
     19     22     24     26     1  0.0000000  2.5104000  3
     19     22     24     26     1  0.0000000  0.0000000  4
     19     22     24     26     1  0.0000000  0.0000000  5
     16     19     22     24     1  0.0000000  2.5104000  1
     16     19     22     24     1  180.0000771  1.6736000  2
     16     19     22     24     1  180.0000771  1.6736000  3
     16     19     22     24     1  180.0000771  0.8368000  4
     16     19     22     24     1  180.0000771  0.8368000  5
     13     16     19     22     1  0.0000000  0.0000000  1
     13     16     19     22     1  0.0000000  0.0000000  2
     13     16     19     22     1  0.0000000  2.0920000  3
     13     16     19     22     1  0.0000000  0.0000000  4
     13     16     19     22     1  0.0000000  0.4184000  5
     10     13     16     19     1  0.0000000  0.4184000  1
     10     13     16     19     1  0.0000000  0.4184000  2
     10     13     16     19     1  0.0000000  1.2552000  3
     10     13     16     19     1  0.0000000  0.4184000  4
     10     13     16     19     1  0.0000000  0.4184000  5
     51      1      4      7     1  0.0000000  0.6527040  3
      7     10     13     16     1  0.0000000  0.4184000  1
      7     10     13     16     1  0.0000000  0.4184000  2
      7     10     13     16     1  0.0000000  1.2552000  3
      7     10     13     16     1  0.0000000  0.4184000  4
      7     10     13     16     1  0.0000000  0.4184000  5
      4      1     51     52     1  180.0000771  0.0000000  2
      4      1     51     53     1  180.0000771  0.0000000  2
      4      7     10     13     1  0.0000000  0.4184000  1
      4      7     10     13     1  0.0000000  0.4184000  2
      4      7     10     13     1  0.0000000  1.2552000  3
      4      7     10     13     1  0.0000000  0.4184000  4
      4      7     10     13     1  0.0000000  0.4184000  5
      1      4      7     10     1  0.0000000  0.4184000  1
      1      4      7     10     1  0.0000000  0.4184000  2
      1      4      7     10     1  0.0000000  1.2552000  3
      1      4      7     10     1  0.0000000  0.4184000  4
      1      4      7     10     1  0.0000000  0.4184000  5
      1     51     53     54     1  180.0000771  11.2968000  2
     79     78     80     83     1  180.0000771  0.0000000  2
     78     80     83     86     1  0.0000000  0.6527040  3
     77     78     80     83     1  180.0000771  0.0000000  2
     65     64     63     75     1  0.0000000  0.0000000  1
     65     64     63     75     1  0.0000000  0.8368000  2
     65     64     63     75     1  0.0000000  0.0000000  3
     65     64     63     75     1  0.0000000  0.0000000  4
     65     64     63     75     1  0.0000000  0.0000000  5
     65     64     63     76     1  0.0000000  0.0000000  1
     65     64     63     76     1  0.0000000  0.8368000  2
     65     64     63     76     1  0.0000000  0.0000000  3
     65     64     63     76     1  0.0000000  0.0000000  4
     65     64     63     76     1  0.0000000  0.0000000  5
     64     65     68     71     1  0.0000000  4.1840000  3
     63     64     65     68     1  180.0000771  -3.3472000  2
     63     64     65     68     1  0.0000000  0.0000000  3
     62     59     57     77     1  0.0000000  0.0000000  1
     62     59     57     77     1  0.0000000  0.0000000  2
     62     59     57     77     1  0.0000000  0.0000000  3
     62     59     57     77     1  0.0000000  0.0000000  4
     62     59     57     77     1  0.0000000  0.0000000  5
     62     63     64     65     1  0.0000000  9.6232000  2
     62     63     64     65     1  0.0000000  2.5104000  3
     59     57     77     78     1  0.0000000  -0.4184000  1
     59     57     77     78     1  240.0001029  -1.2552000  2
     59     57     77     78     1  300.0001286  -0.8368000  3
     59     62     63     64     1  0.0000000  9.6232000  2
     59     62     63     64     1  0.0000000  2.5104000  3
     59     62     63     75     1  0.0000000  0.0000000  1
     59     62     63     75     1  0.0000000  0.8368000  2
     59     62     63     75     1  0.0000000  0.0000000  3
     59     62     63     75     1  0.0000000  0.0000000  4
     59     62     63     75     1  0.0000000  0.0000000  5
     59     62     63     76     1  0.0000000  0.0000000  1
     59     62     63     76     1  0.0000000  0.8368000  2
     59     62     63     76     1  0.0000000  0.0000000  3
     59     62     63     76     1  0.0000000  0.0000000  4
     59     62     63     76     1  0.0000000  0.0000000  5
     57     59     62     63     1  180.0000771  -3.3472000  2
     57     59     62     63     1  0.0000000  0.0000000  3
     57     77     78     79     1  180.0000771  5.8576000  1
     57     77     78     79     1  180.0000771  11.2968000  2
     57     77     78     80     1  180.0000771  11.2968000  2
     54     57     59     62     1  180.0000771  3.3472000  1
     54     57     59     62     1  120.0000514  0.8368000  2
     54     57     59     62     1  60.0000257  1.6736000  3
     54     57     77     78     1  0.0000000  -0.4184000  1
     54     57     77     78     1  240.0001029  -1.2552000  2
     54     57     77     78     1  300.0001286  -0.8368000  3
     53     54     57     59     1  0.0000000  0.0000000  1
     53     54     57     59     1  0.0000000  0.0000000  2
     53     54     57     59     1  0.0000000  0.0000000  3
     53     54     57     59     1  0.0000000  0.0000000  4
     53     54     57     59     1  0.0000000  0.0000000  5
     53     54     57     77     1  180.0000771  -0.4184000  1
     53     54     57     77     1  0.0000000  1.2552000  2
     53     54     57     77     1  0.0000000  4.1840000  3
     52     51     53     54     1  180.0000771  5.8576000  1
     52     51     53     54     1  180.0000771  11.2968000  2
     51     53     54     57     1  0.0000000  -0.4184000  1
     51     53     54     57     1  240.0001029  -1.2552000  2
     51     53     54     57     1  300.0001286  -0.8368000  3
    117    120    123    126     1  0.0000000  0.4184000  1
    117    120    123    126     1  0.0000000  0.4184000  2
    117    120    123    126     1  0.0000000  1.2552000  3
    117    120    123    126     1  0.0000000  0.4184000  4
    117    120    123    126     1  0.0000000  0.4184000  5
    114    117    120    123     1  0.0000000  0.4184000  1
    114    117    120    123     1  0.0000000  0.4184000  2
    114    117    120    123     1  0.0000000  1.2552000  3
    114    117    120    123     1  0.0000000  0.4184000  4
    114    117    120    123     1  0.0000000  0.4184000  5
    111    114    117    120     1  0.0000000  0.4184000  1
    111    114    117    120     1  0.0000000  0.4184000  2
    111    114    117    120     1  0.0000000  1.2552000  3
    111    114    117    120     1  0.0000000  0.4184000  4
    111    114    117    120     1  0.0000000  0.4184000  5
    108    111    114    117     1  0.0000000  0.4184000  1
    108    111    114    117     1  0.0000000  0.4184000  2
    108    111    114    117     1  0.0000000  1.2552000  3
    108    111    114    117     1  0.0000000  0.4184000  4
    108    111    114    117     1  0.0000000  0.4184000  5
    105    108    111    114     1  0.0000000  0.4184000  1
    105    108    111    114     1  0.0000000  0.4184000  2
    105    108    111    114     1  0.0000000  1.2552000  3
    105    108    111    114     1  0.0000000  0.4184000  4
    105    108    111    114     1  0.0000000  0.4184000  5
    103    105    108    111     1  0.0000000  0.0000000  1
    103    105    108    111     1  0.0000000  0.0000000  2
    103    105    108    111     1  0.0000000  2.0920000  3
    103    105    108    111     1  0.0000000  0.0000000  4
    103    105    108    111     1  0.0000000  0.4184000  5
    101    103    105    108     1  0.0000000  2.5104000  1
    101    103    105    108     1  180.0000771  1.6736000  2
    101    103    105    108     1  180.0000771  1.6736000  3
    101    103    105    108     1  180.0000771  0.8368000  4
    101    103    105    108     1  180.0000771  0.8368000  5
     98    101    103    105     1  180.0000771  7.1128000  1
     98    101    103    105     1  180.0000771  13.8072000  2
     98    101    103    105     1  0.0000000  2.5104000  3
     98    101    103    105     1  0.0000000  0.0000000  4
     98    101    103    105     1  0.0000000  0.0000000  5
     95     98    101    103     1  0.0000000  2.5104000  1
     95     98    101    103     1  180.0000771  1.6736000  2
     95     98    101    103     1  180.0000771  1.6736000  3
     95     98    101    103     1  180.0000771  0.8368000  4
     95     98    101    103     1  180.0000771  0.8368000  5
     92     95     98    101     1  0.0000000  0.0000000  1
     92     95     98    101     1  0.0000000  0.0000000  2
     92     95     98    101     1  0.0000000  2.0920000  3
     92     95     98    101     1  0.0000000  0.0000000  4
     92     95     98    101     1  0.0000000  0.4184000  5
     89     92     95     98     1  0.0000000  0.4184000  1
     89     92     95     98     1  0.0000000  0.4184000  2
     89     92     95     98     1  0.0000000  1.2552000  3
     89     92     95     98     1  0.0000000  0.4184000  4
     89     92     95     98     1  0.0000000  0.4184000  5
     86     89     92     95     1  0.0000000  0.4184000  1
     86     89     92     95     1  0.0000000  0.4184000  2
     86     89     92     95     1  0.0000000  1.2552000  3
     86     89     92     95     1  0.0000000  0.4184000  4
     86     89     92     95     1  0.0000000  0.4184000  5
     83     86     89     92     1  0.0000000  0.4184000  1
     83     86     89     92     1  0.0000000  0.4184000  2
     83     86     89     92     1  0.0000000  1.2552000  3
     83     86     89     92     1  0.0000000  0.4184000  4
     83     86     89     92     1  0.0000000  0.4184000  5
     80     83     86     89     1  0.0000000  0.4184000  1
     80     83     86     89     1  0.0000000  0.4184000  2
     80     83     86     89     1  0.0000000  1.2552000  3
     80     83     86     89     1  0.0000000  0.4184000  4
     80     83     86     89     1  0.0000000  0.4184000  5
     80     79     78     77     4  180.0000771  43.9320000  2
      1     52     51     53     4  180.0000771  43.9320000  2
     46     44     47     48     1  0.0000000  0.6276000  3
     46     44     47     49     1  0.0000000  0.6276000  3
     46     44     47     50     1  0.0000000  0.6276000  3
     45     44     47     48     1  0.0000000  0.6276000  3
     45     44     47     49     1  0.0000000  0.6276000  3
     45     44     47     50     1  0.0000000  0.6276000  3
     43     41     44     45     1  0.0000000  0.6276000  3
     43     41     44     46     1  0.0000000  0.6276000  3
     43     41     44     47     1  0.0000000  0.6694400  3
     42     41     44     45     1  0.0000000  0.6276000  3
     42     41     44     46     1  0.0000000  0.6276000  3
     42     41     44     47     1  0.0000000  0.6694400  3
     41     44     47     48     1  0.0000000  0.6694400  3
     41     44     47     49     1  0.0000000  0.6694400  3
     41     44     47     50     1  0.0000000  0.6694400  3
     40     38     41     42     1  0.0000000  0.6276000  3
     40     38     41     43     1  0.0000000  0.6276000  3
     40     38     41     44     1  0.0000000  0.6694400  3
     39     38     41     42     1  0.0000000  0.6276000  3
     39     38     41     43     1  0.0000000  0.6276000  3
     39     38     41     44     1  0.0000000  0.6694400  3
     38     41     44     45     1  0.0000000  0.6694400  3
     38     41     44     46     1  0.0000000  0.6694400  3
     37     35     38     39     1  0.0000000  0.6276000  3
     37     35     38     40     1  0.0000000  0.6276000  3
     37     35     38     41     1  0.0000000  0.6694400  3
     36     35     38     39     1  0.0000000  0.6276000  3
     36     35     38     40     1  0.0000000  0.6276000  3
     36     35     38     41     1  0.0000000  0.6694400  3
     35     38     41     42     1  0.0000000  0.6694400  3
     35     38     41     43     1  0.0000000  0.6694400  3
     34     32     35     36     1  0.0000000  0.6276000  3
     34     32     35     37     1  0.0000000  0.6276000  3
     34     32     35     38     1  0.0000000  0.6694400  3
     33     32     35     36     1  0.0000000  0.6276000  3
     33     32     35     37     1  0.0000000  0.6276000  3
     33     32     35     38     1  0.0000000  0.6694400  3
     32     35     38     39     1  0.0000000  0.6694400  3
     32     35     38     40     1  0.0000000  0.6694400  3
     31     29     32     33     1  0.0000000  0.6276000  3
     31     29     32     34     1  0.0000000  0.6276000  3
     31     29     32     35     1  0.0000000  0.6694400  3
     30     29     32     33     1  0.0000000  0.6276000  3
     30     29     32     34     1  0.0000000  0.6276000  3
     30     29     32     35     1  0.0000000  0.6694400  3
     29     32     35     36     1  0.0000000  0.6694400  3
     29     32     35     37     1  0.0000000  0.6694400  3
     28     26     29     30     1  0.0000000  0.6276000  3
     28     26     29     31     1  0.0000000  0.6276000  3
     28     26     29     32     1  0.0000000  0.6694400  3
     27     26     29     30     1  0.0000000  0.6276000  3
     27     26     29     31     1  0.0000000  0.6276000  3
     27     26     29     32     1  0.0000000  0.6694400  3
     26     29     32     33     1  0.0000000  0.6694400  3
     26     29     32     34     1  0.0000000  0.6694400  3
     25     24     26     27     1  0.0000000  0.0000000  2
     25     24     26     28     1  0.0000000  0.0000000  2
     25     24     26     29     1  0.0000000  0.0000000  2
     24     26     29     30     1  0.0000000  0.6510304  3
     24     26     29     31     1  0.0000000  0.6510304  3
     23     22     24     25     1  180.0000771  27.8236000  2
     23     22     24     26     1  180.0000771  27.8236000  2
     22     24     26     27     1  0.0000000  4.8116000  1
     22     24     26     27     1  180.0000771  1.5899200  3
     22     24     26     28     1  0.0000000  4.8116000  1
     22     24     26     28     1  180.0000771  1.5899200  3
     21     19     22     23     1  0.0000000  0.0000000  2
     21     19     22     24     1  0.0000000  4.8116000  1
     21     19     22     24     1  180.0000771  1.5899200  3
     20     19     22     23     1  0.0000000  0.0000000  2
     20     19     22     24     1  0.0000000  4.8116000  1
     20     19     22     24     1  180.0000771  1.5899200  3
     19     22     24     25     1  180.0000771  27.8236000  2
     18     16     19     20     1  0.0000000  0.6276000  3
     18     16     19     21     1  0.0000000  0.6276000  3
     18     16     19     22     1  0.0000000  0.6510304  3
     17     16     19     20     1  0.0000000  0.6276000  3
     17     16     19     21     1  0.0000000  0.6276000  3
     17     16     19     22     1  0.0000000  0.6510304  3
     16     19     22     23     1  0.0000000  0.0000000  2
     15     13     16     17     1  0.0000000  0.6276000  3
     15     13     16     18     1  0.0000000  0.6276000  3
     15     13     16     19     1  0.0000000  0.6694400  3
     14     13     16     17     1  0.0000000  0.6276000  3
     14     13     16     18     1  0.0000000  0.6276000  3
     14     13     16     19     1  0.0000000  0.6694400  3
     13     16     19     20     1  0.0000000  0.6694400  3
     13     16     19     21     1  0.0000000  0.6694400  3
     12     10     13     14     1  0.0000000  0.6276000  3
     12     10     13     15     1  0.0000000  0.6276000  3
     12     10     13     16     1  0.0000000  0.6694400  3
     11     10     13     14     1  0.0000000  0.6276000  3
     11     10     13     15     1  0.0000000  0.6276000  3
     11     10     13     16     1  0.0000000  0.6694400  3
     10     13     16     17     1  0.0000000  0.6694400  3
     10     13     16     18     1  0.0000000  0.6694400  3
      9      7     10     11     1  0.0000000  0.6276000  3
      9      7     10     12     1  0.0000000  0.6276000  3
      9      7     10     13     1  0.0000000  0.6694400  3
      8      7     10     11     1  0.0000000  0.6276000  3
      8      7     10     12     1  0.0000000  0.6276000  3
      8      7     10     13     1  0.0000000  0.6694400  3
      7     10     13     14     1  0.0000000  0.6694400  3
      7     10     13     15     1  0.0000000  0.6694400  3
     51      1      4      6     1  0.0000000  0.6527040  3
      6      4      7      8     1  0.0000000  0.6276000  3
      6      4      7      9     1  0.0000000  0.6276000  3
      6      4      7     10     1  0.0000000  0.6694400  3
     51      1      4      5     1  0.0000000  0.6527040  3
      5      4      7      8     1  0.0000000  0.6276000  3
      5      4      7      9     1  0.0000000  0.6276000  3
      5      4      7     10     1  0.0000000  0.6694400  3
      4      7     10     11     1  0.0000000  0.6694400  3
      4      7     10     12     1  0.0000000  0.6694400  3
      3      1      4      5     1  0.0000000  0.6276000  3
      3      1      4      6     1  0.0000000  0.6276000  3
      3      1      4      7     1  0.0000000  0.6694400  3
      3      1     51     52     1  0.0000000  3.3472000  1
      3      1     51     52     1  180.0000771  0.3347200  3
      3      1     51     53     1  180.0000771  0.0000000  2
      2      1      4      5     1  0.0000000  0.6276000  3
      2      1      4      6     1  0.0000000  0.6276000  3
      2      1      4      7     1  0.0000000  0.6694400  3
      2      1     51     52     1  0.0000000  3.3472000  1
      2      1     51     52     1  180.0000771  0.3347200  3
      2      1     51     53     1  180.0000771  0.0000000  2
      1      4      7      8     1  0.0000000  0.6694400  3
      1      4      7      9     1  0.0000000  0.6694400  3
     79     78     80     81     1  0.0000000  3.3472000  1
     79     78     80     81     1  180.0000771  0.3347200  3
     79     78     80     82     1  0.0000000  3.3472000  1
     79     78     80     82     1  180.0000771  0.3347200  3
     78     80     83     84     1  0.0000000  0.6527040  3
     78     80     83     85     1  0.0000000  0.6527040  3
     77     78     80     81     1  180.0000771  0.0000000  2
     77     78     80     82     1  180.0000771  0.0000000  2
     70     68     71     72     1  0.0000000  0.6510304  3
     70     68     71     73     1  0.0000000  0.6510304  3
     70     68     71     74     1  0.0000000  0.6510304  3
     69     68     71     72     1  0.0000000  0.6510304  3
     69     68     71     73     1  0.0000000  0.6510304  3
     69     68     71     74     1  0.0000000  0.6510304  3
     67     65     68     69     1  0.0000000  0.6527040  3
     67     65     68     70     1  0.0000000  0.6527040  3
     67     65     68     71     1  0.0000000  0.6527040  3
     66     65     68     69     1  0.0000000  0.6527040  3
     66     65     68     70     1  0.0000000  0.6527040  3
     66     65     68     71     1  0.0000000  0.6527040  3
     65     68     71     72     1  0.0000000  0.6510304  3
     65     68     71     73     1  0.0000000  0.6510304  3
     65     68     71     74     1  0.0000000  0.6510304  3
     64     65     68     69     1  0.0000000  0.6527040  3
     64     65     68     70     1  0.0000000  0.6527040  3
     63     64     65     66     1  0.0000000  0.0000000  1
     63     64     65     66     1  0.0000000  0.0000000  2
     63     64     65     66     1  0.0000000  1.6024720  3
     63     64     65     66     1  0.0000000  0.0000000  4
     63     64     65     66     1  0.0000000  0.0000000  5
     63     64     65     67     1  0.0000000  0.0000000  1
     63     64     65     67     1  0.0000000  0.0000000  2
     63     64     65     67     1  0.0000000  1.6024720  3
     63     64     65     67     1  0.0000000  0.0000000  4
     63     64     65     67     1  0.0000000  0.0000000  5
     61     59     57     77     1  0.0000000  1.0460000  1
     61     59     57     77     1  0.0000000  0.0000000  3
     61     59     62     63     1  0.0000000  0.0000000  1
     61     59     62     63     1  0.0000000  0.0000000  2
     61     59     62     63     1  0.0000000  1.6024720  3
     61     59     62     63     1  0.0000000  0.0000000  4
     61     59     62     63     1  0.0000000  0.0000000  5
     60     59     57     77     1  0.0000000  1.0460000  1
     60     59     57     77     1  0.0000000  0.0000000  3
     60     59     62     63     1  0.0000000  0.0000000  1
     60     59     62     63     1  0.0000000  0.0000000  2
     60     59     62     63     1  0.0000000  1.6024720  3
     60     59     62     63     1  0.0000000  0.0000000  4
     60     59     62     63     1  0.0000000  0.0000000  5
     58     57     59     60     1  0.0000000  0.6527040  3
     58     57     59     61     1  0.0000000  0.6527040  3
     58     57     59     62     1  0.0000000  1.0460000  1
     58     57     59     62     1  0.0000000  0.0000000  3
     58     57     77     78     1  0.0000000  1.6024720  3
     56     54     57     58     1  0.0000000  0.6527040  3
     56     54     57     59     1  0.0000000  0.6527040  3
     56     54     57     77     1  0.0000000  1.0460000  1
     56     54     57     77     1  0.0000000  0.0000000  3
     55     54     57     58     1  0.0000000  0.6527040  3
     55     54     57     59     1  0.0000000  0.6527040  3
     55     54     57     77     1  0.0000000  1.0460000  1
     55     54     57     77     1  0.0000000  0.0000000  3
     54     57     59     60     1  0.0000000  0.6527040  3
     54     57     59     61     1  0.0000000  0.6527040  3
     53     54     57     58     1  0.0000000  1.0460000  1
     53     54     57     58     1  0.0000000  0.0000000  3
     51     53     54     55     1  0.0000000  1.6024720  3
     51     53     54     56     1  0.0000000  1.6024720  3
    125    123    126    127     1  0.0000000  0.6276000  3
    125    123    126    128     1  0.0000000  0.6276000  3
    125    123    126    129     1  0.0000000  0.6276000  3
    124    123    126    127     1  0.0000000  0.6276000  3
    124    123    126    128     1  0.0000000  0.6276000  3
    124    123    126    129     1  0.0000000  0.6276000  3
    122    120    123    124     1  0.0000000  0.6276000  3
    122    120    123    125     1  0.0000000  0.6276000  3
    122    120    123    126     1  0.0000000  0.6694400  3
    121    120    123    124     1  0.0000000  0.6276000  3
    121    120    123    125     1  0.0000000  0.6276000  3
    121    120    123    126     1  0.0000000  0.6694400  3
    120    123    126    127     1  0.0000000  0.6694400  3
    120    123    126    128     1  0.0000000  0.6694400  3
    120    123    126    129     1  0.0000000  0.6694400  3
    119    117    120    121     1  0.0000000  0.6276000  3
    119    117    120    122     1  0.0000000  0.6276000  3
    119    117    120    123     1  0.0000000  0.6694400  3
    118    117    120    121     1  0.0000000  0.6276000  3
    118    117    120    122     1  0.0000000  0.6276000  3
    118    117    120    123     1  0.0000000  0.6694400  3
    117    120    123    124     1  0.0000000  0.6694400  3
    117    120    123    125     1  0.0000000  0.6694400  3
    116    114    117    118     1  0.0000000  0.6276000  3
    116    114    117    119     1  0.0000000  0.6276000  3
    116    114    117    120     1  0.0000000  0.6694400  3
    115    114    117    118     1  0.0000000  0.6276000  3
    115    114    117    119     1  0.0000000  0.6276000  3
    115    114    117    120     1  0.0000000  0.6694400  3
    114    117    120    121     1  0.0000000  0.6694400  3
    114    117    120    122     1  0.0000000  0.6694400  3
    113    111    114    115     1  0.0000000  0.6276000  3
    113    111    114    116     1  0.0000000  0.6276000  3
    113    111    114    117     1  0.0000000  0.6694400  3
    112    111    114    115     1  0.0000000  0.6276000  3
    112    111    114    116     1  0.0000000  0.6276000  3
    112    111    114    117     1  0.0000000  0.6694400  3
    111    114    117    118     1  0.0000000  0.6694400  3
    111    114    117    119     1  0.0000000  0.6694400  3
    110    108    111    112     1  0.0000000  0.6276000  3
    110    108    111    113     1  0.0000000  0.6276000  3
    110    108    111    114     1  0.0000000  0.6694400  3
    109    108    111    112     1  0.0000000  0.6276000  3
    109    108    111    113     1  0.0000000  0.6276000  3
    109    108    111    114     1  0.0000000  0.6694400  3
    108    111    114    115     1  0.0000000  0.6694400  3
    108    111    114    116     1  0.0000000  0.6694400  3
    107    105    108    109     1  0.0000000  0.6276000  3
    107    105    108    110     1  0.0000000  0.6276000  3
    107    105    108    111     1  0.0000000  0.6694400  3
    106    105    108    109     1  0.0000000  0.6276000  3
    106    105    108    110     1  0.0000000  0.6276000  3
    106    105    108    111     1  0.0000000  0.6694400  3
    105    108    111    112     1  0.0000000  0.6694400  3
    105    108    111    113     1  0.0000000  0.6694400  3
    104    103    105    106     1  0.0000000  0.0000000  2
    104    103    105    107     1  0.0000000  0.0000000  2
    104    103    105    108     1  0.0000000  0.0000000  2
    103    105    108    109     1  0.0000000  0.6510304  3
    103    105    108    110     1  0.0000000  0.6510304  3
    102    101    103    104     1  180.0000771  27.8236000  2
    102    101    103    105     1  180.0000771  27.8236000  2
    101    103    105    106     1  0.0000000  4.8116000  1
    101    103    105    106     1  180.0000771  1.5899200  3
    101    103    105    107     1  0.0000000  4.8116000  1
    101    103    105    107     1  180.0000771  1.5899200  3
    100     98    101    102     1  0.0000000  0.0000000  2
    100     98    101    103     1  0.0000000  4.8116000  1
    100     98    101    103     1  180.0000771  1.5899200  3
     99     98    101    102     1  0.0000000  0.0000000  2
     99     98    101    103     1  0.0000000  4.8116000  1
     99     98    101    103     1  180.0000771  1.5899200  3
     98    101    103    104     1  180.0000771  27.8236000  2
     97     95     98     99     1  0.0000000  0.6276000  3
     97     95     98    100     1  0.0000000  0.6276000  3
     97     95     98    101     1  0.0000000  0.6510304  3
     96     95     98     99     1  0.0000000  0.6276000  3
     96     95     98    100     1  0.0000000  0.6276000  3
     96     95     98    101     1  0.0000000  0.6510304  3
     95     98    101    102     1  0.0000000  0.0000000  2
     94     92     95     96     1  0.0000000  0.6276000  3
     94     92     95     97     1  0.0000000  0.6276000  3
     94     92     95     98     1  0.0000000  0.6694400  3
     93     92     95     96     1  0.0000000  0.6276000  3
     93     92     95     97     1  0.0000000  0.6276000  3
     93     92     95     98     1  0.0000000  0.6694400  3
     92     95     98     99     1  0.0000000  0.6694400  3
     92     95     98    100     1  0.0000000  0.6694400  3
     91     89     92     93     1  0.0000000  0.6276000  3
     91     89     92     94     1  0.0000000  0.6276000  3
     91     89     92     95     1  0.0000000  0.6694400  3
     90     89     92     93     1  0.0000000  0.6276000  3
     90     89     92     94     1  0.0000000  0.6276000  3
     90     89     92     95     1  0.0000000  0.6694400  3
     89     92     95     96     1  0.0000000  0.6694400  3
     89     92     95     97     1  0.0000000  0.6694400  3
     88     86     89     90     1  0.0000000  0.6276000  3
     88     86     89     91     1  0.0000000  0.6276000  3
     88     86     89     92     1  0.0000000  0.6694400  3
     87     86     89     90     1  0.0000000  0.6276000  3
     87     86     89     91     1  0.0000000  0.6276000  3
     87     86     89     92     1  0.0000000  0.6694400  3
     86     89     92     93     1  0.0000000  0.6694400  3
     86     89     92     94     1  0.0000000  0.6694400  3
     85     83     86     87     1  0.0000000  0.6276000  3
     85     83     86     88     1  0.0000000  0.6276000  3
     85     83     86     89     1  0.0000000  0.6694400  3
     84     83     86     87     1  0.0000000  0.6276000  3
     84     83     86     88     1  0.0000000  0.6276000  3
     84     83     86     89     1  0.0000000  0.6694400  3
     83     86     89     90     1  0.0000000  0.6694400  3
     83     86     89     91     1  0.0000000  0.6694400  3
     82     80     83     84     1  0.0000000  0.6276000  3
     82     80     83     85     1  0.0000000  0.6276000  3
     82     80     83     86     1  0.0000000  0.6694400  3
     81     80     83     84     1  0.0000000  0.6276000  3
     81     80     83     85     1  0.0000000  0.6276000  3
     81     80     83     86     1  0.0000000  0.6694400  3
     80     83     86     87     1  0.0000000  0.6694400  3
     80     83     86     88     1  0.0000000  0.6694400  3
     22     26     24     25     4  180.0000771  4.6024000  2
     24     19     22     23     4  180.0000771  4.6024000  2
    101    105    103    104     4  180.0000771  4.6024000  2
    103     98    101    102     4  180.0000771  4.6024000  2
