; Exact Amber Lipid21 v1.0 topology converted by ParmEd
; Explicit [pairs] preserve Lipid21-specific 1-4 scaling.

[ moleculetype ]
; Name nrexcl
DPPA 3

[ atoms ]
; nr type resnr residue atom cgnr charge mass
1 L21_cD 1 DPPA C16X 1 -0.12544700 12.010000
2 L21_hL 1 DPPA H16X 2 0.02904700 1.008000
3 L21_hL 1 DPPA H16Y 3 0.02904700 1.008000
4 L21_hL 1 DPPA H16Z 4 0.02904700 1.008000
5 L21_cD 1 DPPA C15X 5 0.01397500 12.010000
6 L21_hL 1 DPPA H15X 6 0.00929200 1.008000
7 L21_hL 1 DPPA H15Y 7 0.00929200 1.008000
8 L21_cD 1 DPPA C14X 8 -0.02008600 12.010000
9 L21_hL 1 DPPA H14X 9 0.01592900 1.008000
10 L21_hL 1 DPPA H14Y 10 0.01592900 1.008000
11 L21_cD 1 DPPA C13X 11 -0.03309600 12.010000
12 L21_hL 1 DPPA H13X 12 0.01462100 1.008000
13 L21_hL 1 DPPA H13Y 13 0.01462100 1.008000
14 L21_cD 1 DPPA C12X 14 -0.02763300 12.010000
15 L21_hL 1 DPPA H12X 15 0.01136800 1.008000
16 L21_hL 1 DPPA H12Y 16 0.01136800 1.008000
17 L21_cD 1 DPPA C11X 17 -0.02520600 12.010000
18 L21_hL 1 DPPA H11X 18 0.01433400 1.008000
19 L21_hL 1 DPPA H11Y 19 0.01433400 1.008000
20 L21_cD 1 DPPA C10X 20 -0.02883100 12.010000
21 L21_hL 1 DPPA H10X 21 0.01469100 1.008000
22 L21_hL 1 DPPA H10Y 22 0.01469100 1.008000
23 L21_cD 1 DPPA C9X 23 -0.03047200 12.010000
24 L21_hL 1 DPPA H9X 24 0.01389700 1.008000
25 L21_hL 1 DPPA H9Y 25 0.01389700 1.008000
26 L21_cD 1 DPPA C8X 26 -0.01579300 12.010000
27 L21_hL 1 DPPA H8X 27 0.00906700 1.008000
28 L21_hL 1 DPPA H8Y 28 0.00906700 1.008000
29 L21_cD 1 DPPA C7X 29 -0.01963000 12.010000
30 L21_hL 1 DPPA H7X 30 0.01104100 1.008000
31 L21_hL 1 DPPA H7Y 31 0.01104100 1.008000
32 L21_cD 1 DPPA C6X 32 -0.02442700 12.010000
33 L21_hL 1 DPPA H6X 33 0.01333400 1.008000
34 L21_hL 1 DPPA H6Y 34 0.01333400 1.008000
35 L21_cD 1 DPPA C5X 35 -0.02938700 12.010000
36 L21_hL 1 DPPA H5X 36 0.01676300 1.008000
37 L21_hL 1 DPPA H5Y 37 0.01676300 1.008000
38 L21_cD 1 DPPA C4X 38 -0.03009900 12.010000
39 L21_hL 1 DPPA H4X 39 0.02087700 1.008000
40 L21_hL 1 DPPA H4Y 40 0.02087700 1.008000
41 L21_cD 1 DPPA C3X 41 -0.00488200 12.010000
42 L21_hL 1 DPPA H3X 42 0.01900700 1.008000
43 L21_hL 1 DPPA H3Y 43 0.01900700 1.008000
44 L21_cD 1 DPPA C2X 44 -0.14925900 12.010000
45 L21_hL 1 DPPA H2X 45 0.04734500 1.008000
46 L21_hL 1 DPPA H2Y 46 0.04734500 1.008000
47 L21_cC 1 DPPA C11 47 0.88820700 12.010000
48 L21_oC 1 DPPA O12 48 -0.67114200 16.000000
49 L21_oS 1 DPPA O11 49 -0.54782400 16.000000
50 L21_cA 1 DPPA C1 50 0.18529900 12.010000
51 L21_hE 1 DPPA HR 51 0.06767600 1.008000
52 L21_hE 1 DPPA HS 52 0.06767600 1.008000
53 L21_cA 1 DPPA C2 53 0.28354600 12.010000
54 L21_hE 1 DPPA HX 54 0.06386200 1.008000
55 L21_cA 1 DPPA C3 55 0.08152800 12.010000
56 L21_hE 1 DPPA HA 56 0.08309900 1.008000
57 L21_hE 1 DPPA HB 57 0.08309900 1.008000
58 L21_oT 1 DPPA O31 58 -0.59419700 16.000000
59 L21_pA 1 DPPA P31 59 1.45666300 30.970000
60 L21_oH 1 DPPA O32 60 -0.70619700 16.000000
61 L21_hO 1 DPPA HO2A 61 0.41562800 1.008000
62 L21_oP 1 DPPA O33 62 -0.91415800 16.000000
63 L21_oP 1 DPPA O34 63 -0.91415800 16.000000
64 L21_oS 1 DPPA O21 64 -0.55448700 16.000000
65 L21_cC 1 DPPA C21 65 0.89750200 12.010000
66 L21_oC 1 DPPA O22 66 -0.67162200 16.000000
67 L21_cD 1 DPPA C16Y 67 -0.12544700 12.010000
68 L21_hL 1 DPPA H16U 68 0.02904700 1.008000
69 L21_hL 1 DPPA H16V 69 0.02904700 1.008000
70 L21_hL 1 DPPA H16W 70 0.02904700 1.008000
71 L21_cD 1 DPPA C15Y 71 0.01397500 12.010000
72 L21_hL 1 DPPA H15U 72 0.00929200 1.008000
73 L21_hL 1 DPPA H15V 73 0.00929200 1.008000
74 L21_cD 1 DPPA C14Y 74 -0.02008600 12.010000
75 L21_hL 1 DPPA H14U 75 0.01592900 1.008000
76 L21_hL 1 DPPA H14V 76 0.01592900 1.008000
77 L21_cD 1 DPPA C13Y 77 -0.03309600 12.010000
78 L21_hL 1 DPPA H13U 78 0.01462100 1.008000
79 L21_hL 1 DPPA H13V 79 0.01462100 1.008000
80 L21_cD 1 DPPA C12Y 80 -0.02763300 12.010000
81 L21_hL 1 DPPA H12U 81 0.01136800 1.008000
82 L21_hL 1 DPPA H12V 82 0.01136800 1.008000
83 L21_cD 1 DPPA C11Y 83 -0.02520600 12.010000
84 L21_hL 1 DPPA H11U 84 0.01433400 1.008000
85 L21_hL 1 DPPA H11V 85 0.01433400 1.008000
86 L21_cD 1 DPPA C10Y 86 -0.02883100 12.010000
87 L21_hL 1 DPPA H10U 87 0.01469100 1.008000
88 L21_hL 1 DPPA H10V 88 0.01469100 1.008000
89 L21_cD 1 DPPA C9Y 89 -0.03047200 12.010000
90 L21_hL 1 DPPA H9U 90 0.01389700 1.008000
91 L21_hL 1 DPPA H9V 91 0.01389700 1.008000
92 L21_cD 1 DPPA C8Y 92 -0.01579300 12.010000
93 L21_hL 1 DPPA H8U 93 0.00906700 1.008000
94 L21_hL 1 DPPA H8V 94 0.00906700 1.008000
95 L21_cD 1 DPPA C7Y 95 -0.01963000 12.010000
96 L21_hL 1 DPPA H7U 96 0.01104100 1.008000
97 L21_hL 1 DPPA H7V 97 0.01104100 1.008000
98 L21_cD 1 DPPA C6Y 98 -0.02442700 12.010000
99 L21_hL 1 DPPA H6U 99 0.01333400 1.008000
100 L21_hL 1 DPPA H6V 100 0.01333400 1.008000
101 L21_cD 1 DPPA C5Y 101 -0.02938700 12.010000
102 L21_hL 1 DPPA H5U 102 0.01676300 1.008000
103 L21_hL 1 DPPA H5V 103 0.01676300 1.008000
104 L21_cD 1 DPPA C4Y 104 -0.03009900 12.010000
105 L21_hL 1 DPPA H4U 105 0.02087700 1.008000
106 L21_hL 1 DPPA H4V 106 0.02087700 1.008000
107 L21_cD 1 DPPA C3Y 107 -0.00488200 12.010000
108 L21_hL 1 DPPA H3U 108 0.01900700 1.008000
109 L21_hL 1 DPPA H3V 109 0.01900700 1.008000
110 L21_cD 1 DPPA C2Y 110 -0.14925900 12.010000
111 L21_hL 1 DPPA H2U 111 0.04734500 1.008000
112 L21_hL 1 DPPA H2V 112 0.04734500 1.008000

[ bonds ]
;    ai     aj funct         c0         c1         c2         c3
     44     47     1   0.15080 274721.440000
     41     44     1   0.15350 253634.080000
     38     41     1   0.15350 253634.080000
     35     38     1   0.15350 253634.080000
     32     35     1   0.15350 253634.080000
     29     32     1   0.15350 253634.080000
     26     29     1   0.15350 253634.080000
     23     26     1   0.15350 253634.080000
     20     23     1   0.15350 253634.080000
     17     20     1   0.15350 253634.080000
     14     17     1   0.15350 253634.080000
     11     14     1   0.15350 253634.080000
      8     11     1   0.15350 253634.080000
      5      8     1   0.15350 253634.080000
      1      5     1   0.15350 253634.080000
     65     66     1   0.12140 542246.400000
     65    110     1   0.15080 274721.440000
     64     65     1   0.13430 344175.840000
     59     60     1   0.16250 268780.160000
     59     62     1   0.14800 439320.000000
     59     63     1   0.14800 439320.000000
     58     59     1   0.16100 192464.000000
     55     58     1   0.14390 252295.200000
     53     55     1   0.15350 253634.080000
     53     64     1   0.14390 252295.200000
     50     53     1   0.15350 253634.080000
     49     50     1   0.14390 252295.200000
     47     48     1   0.12140 542246.400000
     47     49     1   0.13430 344175.840000
    107    110     1   0.15350 253634.080000
    104    107     1   0.15350 253634.080000
    101    104     1   0.15350 253634.080000
     98    101     1   0.15350 253634.080000
     95     98     1   0.15350 253634.080000
     92     95     1   0.15350 253634.080000
     89     92     1   0.15350 253634.080000
     86     89     1   0.15350 253634.080000
     83     86     1   0.15350 253634.080000
     80     83     1   0.15350 253634.080000
     77     80     1   0.15350 253634.080000
     74     77     1   0.15350 253634.080000
     71     74     1   0.15350 253634.080000
     67     71     1   0.15350 253634.080000
     44     45     1   0.10920 282252.640000
     44     46     1   0.10920 282252.640000
     41     42     1   0.10920 282252.640000
     41     43     1   0.10920 282252.640000
     38     39     1   0.10920 282252.640000
     38     40     1   0.10920 282252.640000
     35     36     1   0.10920 282252.640000
     35     37     1   0.10920 282252.640000
     32     33     1   0.10920 282252.640000
     32     34     1   0.10920 282252.640000
     29     30     1   0.10920 282252.640000
     29     31     1   0.10920 282252.640000
     26     27     1   0.10920 282252.640000
     26     28     1   0.10920 282252.640000
     23     24     1   0.10920 282252.640000
     23     25     1   0.10920 282252.640000
     20     21     1   0.10920 282252.640000
     20     22     1   0.10920 282252.640000
     17     18     1   0.10920 282252.640000
     17     19     1   0.10920 282252.640000
     14     15     1   0.10920 282252.640000
     14     16     1   0.10920 282252.640000
     11     12     1   0.10920 282252.640000
     11     13     1   0.10920 282252.640000
      8      9     1   0.10920 282252.640000
      8     10     1   0.10920 282252.640000
      5      6     1   0.10920 282252.640000
      5      7     1   0.10920 282252.640000
      1      2     1   0.10920 282252.640000
      1      3     1   0.10920 282252.640000
      1      4     1   0.10920 282252.640000
     60     61     1   0.09740 309281.280000
     55     56     1   0.10930 281081.120000
     55     57     1   0.10930 281081.120000
     53     54     1   0.10930 281081.120000
     50     51     1   0.10930 281081.120000
     50     52     1   0.10930 281081.120000
    110    111     1   0.10920 282252.640000
    110    112     1   0.10920 282252.640000
    107    108     1   0.10920 282252.640000
    107    109     1   0.10920 282252.640000
    104    105     1   0.10920 282252.640000
    104    106     1   0.10920 282252.640000
    101    102     1   0.10920 282252.640000
    101    103     1   0.10920 282252.640000
     98     99     1   0.10920 282252.640000
     98    100     1   0.10920 282252.640000
     95     96     1   0.10920 282252.640000
     95     97     1   0.10920 282252.640000
     92     93     1   0.10920 282252.640000
     92     94     1   0.10920 282252.640000
     89     90     1   0.10920 282252.640000
     89     91     1   0.10920 282252.640000
     86     87     1   0.10920 282252.640000
     86     88     1   0.10920 282252.640000
     83     84     1   0.10920 282252.640000
     83     85     1   0.10920 282252.640000
     80     81     1   0.10920 282252.640000
     80     82     1   0.10920 282252.640000
     77     78     1   0.10920 282252.640000
     77     79     1   0.10920 282252.640000
     74     75     1   0.10920 282252.640000
     74     76     1   0.10920 282252.640000
     71     72     1   0.10920 282252.640000
     71     73     1   0.10920 282252.640000
     67     68     1   0.10920 282252.640000
     67     69     1   0.10920 282252.640000
     67     70     1   0.10920 282252.640000


[ pairs ]
;    ai     aj funct         c0         c1         c2         c3
     44     50     1
     41     48     1
     41     49     1
     38     47     1
     35     44     1
     32     41     1
     29     38     1
     26     35     1
     23     32     1
     20     29     1
     17     26     1
     14     23     1
     11     20     1
      8     17     1
      5     14     1
      1     11     1
     66    107     1
     65    104     1
     64    107     1
     58     64     1
     55     65     1
     55     60     1
     55     62     1
     55     63     1
     53     59     1
     53     66     1
     53    110     1
     50     58     1
     50     65     1
     49     55     1
     49     64     1
     48     50     1
     47     53     1
    101    110     1
     98    107     1
     95    104     1
     92    101     1
     89     98     1
     86     95     1
     83     92     1
     80     89     1
     77     86     1
     74     83     1
     71     80     1
     67     77     1
     46     48     1
     46     49     1
     45     48     1
     45     49     1
     43     45     1
     43     46     1
     43     47     1
     42     45     1
     42     46     1
     42     47     1
     40     42     1
     40     43     1
     40     44     1
     39     42     1
     39     43     1
     39     44     1
     38     45     1
     38     46     1
     37     39     1
     37     40     1
     37     41     1
     36     39     1
     36     40     1
     36     41     1
     35     42     1
     35     43     1
     34     36     1
     34     37     1
     34     38     1
     33     36     1
     33     37     1
     33     38     1
     32     39     1
     32     40     1
     31     33     1
     31     34     1
     31     35     1
     30     33     1
     30     34     1
     30     35     1
     29     36     1
     29     37     1
     28     30     1
     28     31     1
     28     32     1
     27     30     1
     27     31     1
     27     32     1
     26     33     1
     26     34     1
     25     27     1
     25     28     1
     25     29     1
     24     27     1
     24     28     1
     24     29     1
     23     30     1
     23     31     1
     22     24     1
     22     25     1
     22     26     1
     21     24     1
     21     25     1
     21     26     1
     20     27     1
     20     28     1
     19     21     1
     19     22     1
     19     23     1
     18     21     1
     18     22     1
     18     23     1
     17     24     1
     17     25     1
     16     18     1
     16     19     1
     16     20     1
     15     18     1
     15     19     1
     15     20     1
     14     21     1
     14     22     1
     13     15     1
     13     16     1
     13     17     1
     12     15     1
     12     16     1
     12     17     1
     11     18     1
     11     19     1
     10     12     1
     10     13     1
     10     14     1
      9     12     1
      9     13     1
      9     14     1
      8     15     1
      8     16     1
      7      9     1
      7     10     1
      7     11     1
      6      9     1
      6     10     1
      6     11     1
      5     12     1
      5     13     1
      4      6     1
      4      7     1
      4      8     1
      3      6     1
      3      7     1
      3      8     1
      2      6     1
      2      7     1
      2      8     1
      1      9     1
      1     10     1
     66    111     1
     66    112     1
     65    108     1
     65    109     1
     64    111     1
     64    112     1
     61     62     1
     61     63     1
     58     61     1
     57     64     1
     57     59     1
     56     64     1
     56     59     1
     54     56     1
     54     57     1
     54     58     1
     54     65     1
     52     54     1
     52     55     1
     52     64     1
     51     54     1
     51     55     1
     51     64     1
     50     56     1
     50     57     1
     49     54     1
     47     51     1
     47     52     1
    109    111     1
    109    112     1
    108    111     1
    108    112     1
    106    108     1
    106    109     1
    106    110     1
    105    108     1
    105    109     1
    105    110     1
    104    111     1
    104    112     1
    103    105     1
    103    106     1
    103    107     1
    102    105     1
    102    106     1
    102    107     1
    101    108     1
    101    109     1
    100    102     1
    100    103     1
    100    104     1
     99    102     1
     99    103     1
     99    104     1
     98    105     1
     98    106     1
     97     99     1
     97    100     1
     97    101     1
     96     99     1
     96    100     1
     96    101     1
     95    102     1
     95    103     1
     94     96     1
     94     97     1
     94     98     1
     93     96     1
     93     97     1
     93     98     1
     92     99     1
     92    100     1
     91     93     1
     91     94     1
     91     95     1
     90     93     1
     90     94     1
     90     95     1
     89     96     1
     89     97     1
     88     90     1
     88     91     1
     88     92     1
     87     90     1
     87     91     1
     87     92     1
     86     93     1
     86     94     1
     85     87     1
     85     88     1
     85     89     1
     84     87     1
     84     88     1
     84     89     1
     83     90     1
     83     91     1
     82     84     1
     82     85     1
     82     86     1
     81     84     1
     81     85     1
     81     86     1
     80     87     1
     80     88     1
     79     81     1
     79     82     1
     79     83     1
     78     81     1
     78     82     1
     78     83     1
     77     84     1
     77     85     1
     76     78     1
     76     79     1
     76     80     1
     75     78     1
     75     79     1
     75     80     1
     74     81     1
     74     82     1
     73     75     1
     73     76     1
     73     77     1
     72     75     1
     72     76     1
     72     77     1
     71     78     1
     71     79     1
     70     72     1
     70     73     1
     70     74     1
     69     72     1
     69     73     1
     69     74     1
     68     72     1
     68     73     1
     68     74     1
     67     75     1
     67     76     1


[ angles ]
;    ai     aj     ak funct         c0         c1         c2         c3
     44     47     48     1   123.1100526 569.275040
     44     47     49     1   111.9600481 579.567680
     41     44     47     1   110.5300474 533.794720
     38     41     44     1   112.0500483 394.969600
     35     38     41     1   112.0500483 394.969600
     32     35     38     1   112.0500483 394.969600
     29     32     35     1   112.0500483 394.969600
     26     29     32     1   112.0500483 394.969600
     23     26     29     1   112.0500483 394.969600
     20     23     26     1   112.0500483 394.969600
     17     20     23     1   112.0500483 394.969600
     14     17     20     1   112.0500483 394.969600
     11     14     17     1   112.0500483 394.969600
      8     11     14     1   112.0500483 394.969600
      5      8     11     1   112.0500483 394.969600
      1      5      8     1   112.0500483 394.969600
     66     65    110     1   123.1100526 569.275040
     65    110    107     1   110.5300474 533.794720
     64     65     66     1   123.3300529 635.382240
     64     65    110     1   111.9600481 579.567680
     62     59     63     1   119.9000514 1171.520000
     60     59     62     1   115.2600495 366.434720
     60     59     63     1   115.2600495 366.434720
     58     59     60     1   102.3700438 375.806880
     58     59     62     1   108.2300464 836.800000
     58     59     63     1   108.2300464 836.800000
     55     53     64     1   108.4200467 567.183040
     55     58     59     1   120.5000516 836.800000
     53     55     58     1   108.4200467 567.183040
     53     64     65     1   115.1400492 532.455840
     50     53     55     1   110.6300475 528.941280
     50     53     64     1   108.4200467 567.183040
     49     50     53     1   108.4200467 567.183040
     48     47     49     1   123.3300529 635.382240
     47     49     50     1   115.1400492 532.455840
    104    107    110     1   112.0500483 394.969600
    101    104    107     1   112.0500483 394.969600
     98    101    104     1   112.0500483 394.969600
     95     98    101     1   112.0500483 394.969600
     92     95     98     1   112.0500483 394.969600
     89     92     95     1   112.0500483 394.969600
     86     89     92     1   112.0500483 394.969600
     83     86     89     1   112.0500483 394.969600
     80     83     86     1   112.0500483 394.969600
     77     80     83     1   112.0500483 394.969600
     74     77     80     1   112.0500483 394.969600
     71     74     77     1   112.0500483 394.969600
     67     71     74     1   112.0500483 394.969600
     46     44     47     1   109.6800468 394.969600
     45     44     46     1   108.3500467 329.950240
     45     44     47     1   109.6800468 394.969600
     43     41     44     1   110.0500475 388.024160
     42     41     43     1   108.3500467 329.950240
     42     41     44     1   110.0500475 388.024160
     41     44     45     1   110.0500475 388.024160
     41     44     46     1   110.0500475 388.024160
     40     38     41     1   110.0500475 388.024160
     39     38     40     1   108.3500467 329.950240
     39     38     41     1   110.0500475 388.024160
     38     41     42     1   110.0500475 388.024160
     38     41     43     1   110.0500475 388.024160
     37     35     38     1   110.0500475 388.024160
     36     35     37     1   108.3500467 329.950240
     36     35     38     1   110.0500475 388.024160
     35     38     39     1   110.0500475 388.024160
     35     38     40     1   110.0500475 388.024160
     34     32     35     1   110.0500475 388.024160
     33     32     34     1   108.3500467 329.950240
     33     32     35     1   110.0500475 388.024160
     32     35     36     1   110.0500475 388.024160
     32     35     37     1   110.0500475 388.024160
     31     29     32     1   110.0500475 388.024160
     30     29     31     1   108.3500467 329.950240
     30     29     32     1   110.0500475 388.024160
     29     32     33     1   110.0500475 388.024160
     29     32     34     1   110.0500475 388.024160
     28     26     29     1   110.0500475 388.024160
     27     26     28     1   108.3500467 329.950240
     27     26     29     1   110.0500475 388.024160
     26     29     30     1   110.0500475 388.024160
     26     29     31     1   110.0500475 388.024160
     25     23     26     1   110.0500475 388.024160
     24     23     25     1   108.3500467 329.950240
     24     23     26     1   110.0500475 388.024160
     23     26     27     1   110.0500475 388.024160
     23     26     28     1   110.0500475 388.024160
     22     20     23     1   110.0500475 388.024160
     21     20     22     1   108.3500467 329.950240
     21     20     23     1   110.0500475 388.024160
     20     23     24     1   110.0500475 388.024160
     20     23     25     1   110.0500475 388.024160
     19     17     20     1   110.0500475 388.024160
     18     17     19     1   108.3500467 329.950240
     18     17     20     1   110.0500475 388.024160
     17     20     21     1   110.0500475 388.024160
     17     20     22     1   110.0500475 388.024160
     16     14     17     1   110.0500475 388.024160
     15     14     16     1   108.3500467 329.950240
     15     14     17     1   110.0500475 388.024160
     14     17     18     1   110.0500475 388.024160
     14     17     19     1   110.0500475 388.024160
     13     11     14     1   110.0500475 388.024160
     12     11     13     1   108.3500467 329.950240
     12     11     14     1   110.0500475 388.024160
     11     14     15     1   110.0500475 388.024160
     11     14     16     1   110.0500475 388.024160
     10      8     11     1   110.0500475 388.024160
      9      8     10     1   108.3500467 329.950240
      9      8     11     1   110.0500475 388.024160
      8     11     12     1   110.0500475 388.024160
      8     11     13     1   110.0500475 388.024160
      7      5      8     1   110.0500475 388.024160
      6      5      7     1   108.3500467 329.950240
      6      5      8     1   110.0500475 388.024160
      5      8      9     1   110.0500475 388.024160
      5      8     10     1   110.0500475 388.024160
      4      1      5     1   110.0500475 388.024160
      3      1      4     1   108.3500467 329.950240
      3      1      5     1   110.0500475 388.024160
      2      1      3     1   108.3500467 329.950240
      2      1      4     1   108.3500467 329.950240
      2      1      5     1   110.0500475 388.024160
      1      5      6     1   110.0500475 388.024160
      1      5      7     1   110.0500475 388.024160
     65    110    111     1   109.6800468 394.969600
     65    110    112     1   109.6800468 394.969600
     59     60     61     1   110.1400471 467.603840
     57     55     58     1   108.8200469 425.429120
     56     55     57     1   109.5500472 327.858240
     56     55     58     1   108.8200469 425.429120
     54     53     55     1   110.0700471 387.940480
     54     53     64     1   108.8200469 425.429120
     53     55     56     1   110.0700471 387.940480
     53     55     57     1   110.0700471 387.940480
     52     50     53     1   110.0700471 387.940480
     51     50     52     1   109.5500472 327.858240
     51     50     53     1   110.0700471 387.940480
     50     53     54     1   110.0700471 387.940480
     49     50     51     1   108.8200469 425.429120
     49     50     52     1   108.8200469 425.429120
    111    110    112     1   108.3500467 329.950240
    109    107    110     1   110.0500475 388.024160
    108    107    109     1   108.3500467 329.950240
    108    107    110     1   110.0500475 388.024160
    107    110    111     1   110.0500475 388.024160
    107    110    112     1   110.0500475 388.024160
    106    104    107     1   110.0500475 388.024160
    105    104    106     1   108.3500467 329.950240
    105    104    107     1   110.0500475 388.024160
    104    107    108     1   110.0500475 388.024160
    104    107    109     1   110.0500475 388.024160
    103    101    104     1   110.0500475 388.024160
    102    101    103     1   108.3500467 329.950240
    102    101    104     1   110.0500475 388.024160
    101    104    105     1   110.0500475 388.024160
    101    104    106     1   110.0500475 388.024160
    100     98    101     1   110.0500475 388.024160
     99     98    100     1   108.3500467 329.950240
     99     98    101     1   110.0500475 388.024160
     98    101    102     1   110.0500475 388.024160
     98    101    103     1   110.0500475 388.024160
     97     95     98     1   110.0500475 388.024160
     96     95     97     1   108.3500467 329.950240
     96     95     98     1   110.0500475 388.024160
     95     98     99     1   110.0500475 388.024160
     95     98    100     1   110.0500475 388.024160
     94     92     95     1   110.0500475 388.024160
     93     92     94     1   108.3500467 329.950240
     93     92     95     1   110.0500475 388.024160
     92     95     96     1   110.0500475 388.024160
     92     95     97     1   110.0500475 388.024160
     91     89     92     1   110.0500475 388.024160
     90     89     91     1   108.3500467 329.950240
     90     89     92     1   110.0500475 388.024160
     89     92     93     1   110.0500475 388.024160
     89     92     94     1   110.0500475 388.024160
     88     86     89     1   110.0500475 388.024160
     87     86     88     1   108.3500467 329.950240
     87     86     89     1   110.0500475 388.024160
     86     89     90     1   110.0500475 388.024160
     86     89     91     1   110.0500475 388.024160
     85     83     86     1   110.0500475 388.024160
     84     83     85     1   108.3500467 329.950240
     84     83     86     1   110.0500475 388.024160
     83     86     87     1   110.0500475 388.024160
     83     86     88     1   110.0500475 388.024160
     82     80     83     1   110.0500475 388.024160
     81     80     82     1   108.3500467 329.950240
     81     80     83     1   110.0500475 388.024160
     80     83     84     1   110.0500475 388.024160
     80     83     85     1   110.0500475 388.024160
     79     77     80     1   110.0500475 388.024160
     78     77     79     1   108.3500467 329.950240
     78     77     80     1   110.0500475 388.024160
     77     80     81     1   110.0500475 388.024160
     77     80     82     1   110.0500475 388.024160
     76     74     77     1   110.0500475 388.024160
     75     74     76     1   108.3500467 329.950240
     75     74     77     1   110.0500475 388.024160
     74     77     78     1   110.0500475 388.024160
     74     77     79     1   110.0500475 388.024160
     73     71     74     1   110.0500475 388.024160
     72     71     73     1   108.3500467 329.950240
     72     71     74     1   110.0500475 388.024160
     71     74     75     1   110.0500475 388.024160
     71     74     76     1   110.0500475 388.024160
     70     67     71     1   110.0500475 388.024160
     69     67     70     1   108.3500467 329.950240
     69     67     71     1   110.0500475 388.024160
     68     67     69     1   108.3500467 329.950240
     68     67     70     1   108.3500467 329.950240
     68     67     71     1   110.0500475 388.024160
     67     71     72     1   110.0500475 388.024160
     67     71     73     1   110.0500475 388.024160


[ dihedrals ]
;    ai     aj     ak     al funct         c0         c1         c2         c3         c4         c5
     44     47     49     50     1  180.0000771  11.2968000  2
     41     44     47     48     1  180.0000771  0.0000000  2
     41     44     47     49     1  180.0000771  0.0000000  2
     38     41     44     47     1  0.0000000  0.6527040  3
     35     38     41     44     1  0.0000000  0.4184000  1
     35     38     41     44     1  0.0000000  0.4184000  2
     35     38     41     44     1  0.0000000  1.2552000  3
     35     38     41     44     1  0.0000000  0.4184000  4
     35     38     41     44     1  0.0000000  0.4184000  5
     32     35     38     41     1  0.0000000  0.4184000  1
     32     35     38     41     1  0.0000000  0.4184000  2
     32     35     38     41     1  0.0000000  1.2552000  3
     32     35     38     41     1  0.0000000  0.4184000  4
     32     35     38     41     1  0.0000000  0.4184000  5
     29     32     35     38     1  0.0000000  0.4184000  1
     29     32     35     38     1  0.0000000  0.4184000  2
     29     32     35     38     1  0.0000000  1.2552000  3
     29     32     35     38     1  0.0000000  0.4184000  4
     29     32     35     38     1  0.0000000  0.4184000  5
     26     29     32     35     1  0.0000000  0.4184000  1
     26     29     32     35     1  0.0000000  0.4184000  2
     26     29     32     35     1  0.0000000  1.2552000  3
     26     29     32     35     1  0.0000000  0.4184000  4
     26     29     32     35     1  0.0000000  0.4184000  5
     23     26     29     32     1  0.0000000  0.4184000  1
     23     26     29     32     1  0.0000000  0.4184000  2
     23     26     29     32     1  0.0000000  1.2552000  3
     23     26     29     32     1  0.0000000  0.4184000  4
     23     26     29     32     1  0.0000000  0.4184000  5
     20     23     26     29     1  0.0000000  0.4184000  1
     20     23     26     29     1  0.0000000  0.4184000  2
     20     23     26     29     1  0.0000000  1.2552000  3
     20     23     26     29     1  0.0000000  0.4184000  4
     20     23     26     29     1  0.0000000  0.4184000  5
     17     20     23     26     1  0.0000000  0.4184000  1
     17     20     23     26     1  0.0000000  0.4184000  2
     17     20     23     26     1  0.0000000  1.2552000  3
     17     20     23     26     1  0.0000000  0.4184000  4
     17     20     23     26     1  0.0000000  0.4184000  5
     14     17     20     23     1  0.0000000  0.4184000  1
     14     17     20     23     1  0.0000000  0.4184000  2
     14     17     20     23     1  0.0000000  1.2552000  3
     14     17     20     23     1  0.0000000  0.4184000  4
     14     17     20     23     1  0.0000000  0.4184000  5
     11     14     17     20     1  0.0000000  0.4184000  1
     11     14     17     20     1  0.0000000  0.4184000  2
     11     14     17     20     1  0.0000000  1.2552000  3
     11     14     17     20     1  0.0000000  0.4184000  4
     11     14     17     20     1  0.0000000  0.4184000  5
      8     11     14     17     1  0.0000000  0.4184000  1
      8     11     14     17     1  0.0000000  0.4184000  2
      8     11     14     17     1  0.0000000  1.2552000  3
      8     11     14     17     1  0.0000000  0.4184000  4
      8     11     14     17     1  0.0000000  0.4184000  5
      5      8     11     14     1  0.0000000  0.4184000  1
      5      8     11     14     1  0.0000000  0.4184000  2
      5      8     11     14     1  0.0000000  1.2552000  3
      5      8     11     14     1  0.0000000  0.4184000  4
      5      8     11     14     1  0.0000000  0.4184000  5
      1      5      8     11     1  0.0000000  0.4184000  1
      1      5      8     11     1  0.0000000  0.4184000  2
      1      5      8     11     1  0.0000000  1.2552000  3
      1      5      8     11     1  0.0000000  0.4184000  4
      1      5      8     11     1  0.0000000  0.4184000  5
     66     65    110    107     1  180.0000771  0.0000000  2
     65    110    107    104     1  0.0000000  0.6527040  3
     64     65    110    107     1  180.0000771  0.0000000  2
     58     55     53     64     1  0.0000000  0.0000000  1
     58     55     53     64     1  0.0000000  0.0000000  2
     58     55     53     64     1  0.0000000  0.0000000  3
     58     55     53     64     1  0.0000000  0.0000000  4
     58     55     53     64     1  0.0000000  0.0000000  5
     55     53     64     65     1  0.0000000  -0.4184000  1
     55     53     64     65     1  240.0001029  -1.2552000  2
     55     53     64     65     1  300.0001286  -0.8368000  3
     55     58     59     60     1  0.0000000  5.0208000  2
     55     58     59     60     1  0.0000000  1.0460000  3
     55     58     59     62     1  0.0000000  0.0000000  1
     55     58     59     62     1  0.0000000  0.8368000  2
     55     58     59     62     1  0.0000000  0.0000000  3
     55     58     59     62     1  0.0000000  0.0000000  4
     55     58     59     62     1  0.0000000  0.0000000  5
     55     58     59     63     1  0.0000000  0.0000000  1
     55     58     59     63     1  0.0000000  0.8368000  2
     55     58     59     63     1  0.0000000  0.0000000  3
     55     58     59     63     1  0.0000000  0.0000000  4
     55     58     59     63     1  0.0000000  0.0000000  5
     53     55     58     59     1  180.0000771  -3.3472000  2
     53     55     58     59     1  0.0000000  0.0000000  3
     53     64     65     66     1  180.0000771  5.8576000  1
     53     64     65     66     1  180.0000771  11.2968000  2
     53     64     65    110     1  180.0000771  11.2968000  2
     50     53     55     58     1  180.0000771  3.3472000  1
     50     53     55     58     1  120.0000514  0.8368000  2
     50     53     55     58     1  60.0000257  1.6736000  3
     50     53     64     65     1  0.0000000  -0.4184000  1
     50     53     64     65     1  240.0001029  -1.2552000  2
     50     53     64     65     1  300.0001286  -0.8368000  3
     49     50     53     55     1  0.0000000  0.0000000  1
     49     50     53     55     1  0.0000000  0.0000000  2
     49     50     53     55     1  0.0000000  0.0000000  3
     49     50     53     55     1  0.0000000  0.0000000  4
     49     50     53     55     1  0.0000000  0.0000000  5
     49     50     53     64     1  180.0000771  -0.4184000  1
     49     50     53     64     1  0.0000000  1.2552000  2
     49     50     53     64     1  0.0000000  4.1840000  3
     48     47     49     50     1  180.0000771  5.8576000  1
     48     47     49     50     1  180.0000771  11.2968000  2
     47     49     50     53     1  0.0000000  -0.4184000  1
     47     49     50     53     1  240.0001029  -1.2552000  2
     47     49     50     53     1  300.0001286  -0.8368000  3
    101    104    107    110     1  0.0000000  0.4184000  1
    101    104    107    110     1  0.0000000  0.4184000  2
    101    104    107    110     1  0.0000000  1.2552000  3
    101    104    107    110     1  0.0000000  0.4184000  4
    101    104    107    110     1  0.0000000  0.4184000  5
     98    101    104    107     1  0.0000000  0.4184000  1
     98    101    104    107     1  0.0000000  0.4184000  2
     98    101    104    107     1  0.0000000  1.2552000  3
     98    101    104    107     1  0.0000000  0.4184000  4
     98    101    104    107     1  0.0000000  0.4184000  5
     95     98    101    104     1  0.0000000  0.4184000  1
     95     98    101    104     1  0.0000000  0.4184000  2
     95     98    101    104     1  0.0000000  1.2552000  3
     95     98    101    104     1  0.0000000  0.4184000  4
     95     98    101    104     1  0.0000000  0.4184000  5
     92     95     98    101     1  0.0000000  0.4184000  1
     92     95     98    101     1  0.0000000  0.4184000  2
     92     95     98    101     1  0.0000000  1.2552000  3
     92     95     98    101     1  0.0000000  0.4184000  4
     92     95     98    101     1  0.0000000  0.4184000  5
     89     92     95     98     1  0.0000000  0.4184000  1
     89     92     95     98     1  0.0000000  0.4184000  2
     89     92     95     98     1  0.0000000  1.2552000  3
     89     92     95     98     1  0.0000000  0.4184000  4
     89     92     95     98     1  0.0000000  0.4184000  5
     86     89     92     95     1  0.0000000  0.4184000  1
     86     89     92     95     1  0.0000000  0.4184000  2
     86     89     92     95     1  0.0000000  1.2552000  3
     86     89     92     95     1  0.0000000  0.4184000  4
     86     89     92     95     1  0.0000000  0.4184000  5
     83     86     89     92     1  0.0000000  0.4184000  1
     83     86     89     92     1  0.0000000  0.4184000  2
     83     86     89     92     1  0.0000000  1.2552000  3
     83     86     89     92     1  0.0000000  0.4184000  4
     83     86     89     92     1  0.0000000  0.4184000  5
     80     83     86     89     1  0.0000000  0.4184000  1
     80     83     86     89     1  0.0000000  0.4184000  2
     80     83     86     89     1  0.0000000  1.2552000  3
     80     83     86     89     1  0.0000000  0.4184000  4
     80     83     86     89     1  0.0000000  0.4184000  5
     77     80     83     86     1  0.0000000  0.4184000  1
     77     80     83     86     1  0.0000000  0.4184000  2
     77     80     83     86     1  0.0000000  1.2552000  3
     77     80     83     86     1  0.0000000  0.4184000  4
     77     80     83     86     1  0.0000000  0.4184000  5
     74     77     80     83     1  0.0000000  0.4184000  1
     74     77     80     83     1  0.0000000  0.4184000  2
     74     77     80     83     1  0.0000000  1.2552000  3
     74     77     80     83     1  0.0000000  0.4184000  4
     74     77     80     83     1  0.0000000  0.4184000  5
     71     74     77     80     1  0.0000000  0.4184000  1
     71     74     77     80     1  0.0000000  0.4184000  2
     71     74     77     80     1  0.0000000  1.2552000  3
     71     74     77     80     1  0.0000000  0.4184000  4
     71     74     77     80     1  0.0000000  0.4184000  5
     67     71     74     77     1  0.0000000  0.4184000  1
     67     71     74     77     1  0.0000000  0.4184000  2
     67     71     74     77     1  0.0000000  1.2552000  3
     67     71     74     77     1  0.0000000  0.4184000  4
     67     71     74     77     1  0.0000000  0.4184000  5
    110     66     65     64     4  180.0000771  43.9320000  2
     44     48     47     49     4  180.0000771  43.9320000  2
     46     44     47     48     1  0.0000000  3.3472000  1
     46     44     47     48     1  180.0000771  0.3347200  3
     46     44     47     49     1  180.0000771  0.0000000  2
     45     44     47     48     1  0.0000000  3.3472000  1
     45     44     47     48     1  180.0000771  0.3347200  3
     45     44     47     49     1  180.0000771  0.0000000  2
     43     41     44     45     1  0.0000000  0.6276000  3
     43     41     44     46     1  0.0000000  0.6276000  3
     43     41     44     47     1  0.0000000  0.6527040  3
     42     41     44     45     1  0.0000000  0.6276000  3
     42     41     44     46     1  0.0000000  0.6276000  3
     42     41     44     47     1  0.0000000  0.6527040  3
     40     38     41     42     1  0.0000000  0.6276000  3
     40     38     41     43     1  0.0000000  0.6276000  3
     40     38     41     44     1  0.0000000  0.6694400  3
     39     38     41     42     1  0.0000000  0.6276000  3
     39     38     41     43     1  0.0000000  0.6276000  3
     39     38     41     44     1  0.0000000  0.6694400  3
     38     41     44     45     1  0.0000000  0.6694400  3
     38     41     44     46     1  0.0000000  0.6694400  3
     37     35     38     39     1  0.0000000  0.6276000  3
     37     35     38     40     1  0.0000000  0.6276000  3
     37     35     38     41     1  0.0000000  0.6694400  3
     36     35     38     39     1  0.0000000  0.6276000  3
     36     35     38     40     1  0.0000000  0.6276000  3
     36     35     38     41     1  0.0000000  0.6694400  3
     35     38     41     42     1  0.0000000  0.6694400  3
     35     38     41     43     1  0.0000000  0.6694400  3
     34     32     35     36     1  0.0000000  0.6276000  3
     34     32     35     37     1  0.0000000  0.6276000  3
     34     32     35     38     1  0.0000000  0.6694400  3
     33     32     35     36     1  0.0000000  0.6276000  3
     33     32     35     37     1  0.0000000  0.6276000  3
     33     32     35     38     1  0.0000000  0.6694400  3
     32     35     38     39     1  0.0000000  0.6694400  3
     32     35     38     40     1  0.0000000  0.6694400  3
     31     29     32     33     1  0.0000000  0.6276000  3
     31     29     32     34     1  0.0000000  0.6276000  3
     31     29     32     35     1  0.0000000  0.6694400  3
     30     29     32     33     1  0.0000000  0.6276000  3
     30     29     32     34     1  0.0000000  0.6276000  3
     30     29     32     35     1  0.0000000  0.6694400  3
     29     32     35     36     1  0.0000000  0.6694400  3
     29     32     35     37     1  0.0000000  0.6694400  3
     28     26     29     30     1  0.0000000  0.6276000  3
     28     26     29     31     1  0.0000000  0.6276000  3
     28     26     29     32     1  0.0000000  0.6694400  3
     27     26     29     30     1  0.0000000  0.6276000  3
     27     26     29     31     1  0.0000000  0.6276000  3
     27     26     29     32     1  0.0000000  0.6694400  3
     26     29     32     33     1  0.0000000  0.6694400  3
     26     29     32     34     1  0.0000000  0.6694400  3
     25     23     26     27     1  0.0000000  0.6276000  3
     25     23     26     28     1  0.0000000  0.6276000  3
     25     23     26     29     1  0.0000000  0.6694400  3
     24     23     26     27     1  0.0000000  0.6276000  3
     24     23     26     28     1  0.0000000  0.6276000  3
     24     23     26     29     1  0.0000000  0.6694400  3
     23     26     29     30     1  0.0000000  0.6694400  3
     23     26     29     31     1  0.0000000  0.6694400  3
     22     20     23     24     1  0.0000000  0.6276000  3
     22     20     23     25     1  0.0000000  0.6276000  3
     22     20     23     26     1  0.0000000  0.6694400  3
     21     20     23     24     1  0.0000000  0.6276000  3
     21     20     23     25     1  0.0000000  0.6276000  3
     21     20     23     26     1  0.0000000  0.6694400  3
     20     23     26     27     1  0.0000000  0.6694400  3
     20     23     26     28     1  0.0000000  0.6694400  3
     19     17     20     21     1  0.0000000  0.6276000  3
     19     17     20     22     1  0.0000000  0.6276000  3
     19     17     20     23     1  0.0000000  0.6694400  3
     18     17     20     21     1  0.0000000  0.6276000  3
     18     17     20     22     1  0.0000000  0.6276000  3
     18     17     20     23     1  0.0000000  0.6694400  3
     17     20     23     24     1  0.0000000  0.6694400  3
     17     20     23     25     1  0.0000000  0.6694400  3
     16     14     17     18     1  0.0000000  0.6276000  3
     16     14     17     19     1  0.0000000  0.6276000  3
     16     14     17     20     1  0.0000000  0.6694400  3
     15     14     17     18     1  0.0000000  0.6276000  3
     15     14     17     19     1  0.0000000  0.6276000  3
     15     14     17     20     1  0.0000000  0.6694400  3
     14     17     20     21     1  0.0000000  0.6694400  3
     14     17     20     22     1  0.0000000  0.6694400  3
     13     11     14     15     1  0.0000000  0.6276000  3
     13     11     14     16     1  0.0000000  0.6276000  3
     13     11     14     17     1  0.0000000  0.6694400  3
     12     11     14     15     1  0.0000000  0.6276000  3
     12     11     14     16     1  0.0000000  0.6276000  3
     12     11     14     17     1  0.0000000  0.6694400  3
     11     14     17     18     1  0.0000000  0.6694400  3
     11     14     17     19     1  0.0000000  0.6694400  3
     10      8     11     12     1  0.0000000  0.6276000  3
     10      8     11     13     1  0.0000000  0.6276000  3
     10      8     11     14     1  0.0000000  0.6694400  3
      9      8     11     12     1  0.0000000  0.6276000  3
      9      8     11     13     1  0.0000000  0.6276000  3
      9      8     11     14     1  0.0000000  0.6694400  3
      8     11     14     15     1  0.0000000  0.6694400  3
      8     11     14     16     1  0.0000000  0.6694400  3
      7      5      8      9     1  0.0000000  0.6276000  3
      7      5      8     10     1  0.0000000  0.6276000  3
      7      5      8     11     1  0.0000000  0.6694400  3
      6      5      8      9     1  0.0000000  0.6276000  3
      6      5      8     10     1  0.0000000  0.6276000  3
      6      5      8     11     1  0.0000000  0.6694400  3
      5      8     11     12     1  0.0000000  0.6694400  3
      5      8     11     13     1  0.0000000  0.6694400  3
      4      1      5      6     1  0.0000000  0.6276000  3
      4      1      5      7     1  0.0000000  0.6276000  3
      4      1      5      8     1  0.0000000  0.6694400  3
      3      1      5      6     1  0.0000000  0.6276000  3
      3      1      5      7     1  0.0000000  0.6276000  3
      3      1      5      8     1  0.0000000  0.6694400  3
      2      1      5      6     1  0.0000000  0.6276000  3
      2      1      5      7     1  0.0000000  0.6276000  3
      2      1      5      8     1  0.0000000  0.6694400  3
      1      5      8      9     1  0.0000000  0.6694400  3
      1      5      8     10     1  0.0000000  0.6694400  3
     66     65    110    111     1  0.0000000  3.3472000  1
     66     65    110    111     1  180.0000771  0.3347200  3
     66     65    110    112     1  0.0000000  3.3472000  1
     66     65    110    112     1  180.0000771  0.3347200  3
     65    110    107    108     1  0.0000000  0.6527040  3
     65    110    107    109     1  0.0000000  0.6527040  3
     64     65    110    111     1  180.0000771  0.0000000  2
     64     65    110    112     1  180.0000771  0.0000000  2
     61     60     59     62     1  0.0000000  2.2313272  3
     61     60     59     63     1  0.0000000  2.2313272  3
     58     59     60     61     1  0.0000000  2.2313272  3
     57     55     53     64     1  0.0000000  1.0460000  1
     57     55     53     64     1  0.0000000  0.0000000  3
     57     55     58     59     1  0.0000000  0.0000000  1
     57     55     58     59     1  0.0000000  0.0000000  2
     57     55     58     59     1  0.0000000  1.6024720  3
     57     55     58     59     1  0.0000000  0.0000000  4
     57     55     58     59     1  0.0000000  0.0000000  5
     56     55     53     64     1  0.0000000  1.0460000  1
     56     55     53     64     1  0.0000000  0.0000000  3
     56     55     58     59     1  0.0000000  0.0000000  1
     56     55     58     59     1  0.0000000  0.0000000  2
     56     55     58     59     1  0.0000000  1.6024720  3
     56     55     58     59     1  0.0000000  0.0000000  4
     56     55     58     59     1  0.0000000  0.0000000  5
     54     53     55     56     1  0.0000000  0.6527040  3
     54     53     55     57     1  0.0000000  0.6527040  3
     54     53     55     58     1  0.0000000  1.0460000  1
     54     53     55     58     1  0.0000000  0.0000000  3
     54     53     64     65     1  0.0000000  1.6024720  3
     52     50     53     54     1  0.0000000  0.6527040  3
     52     50     53     55     1  0.0000000  0.6527040  3
     52     50     53     64     1  0.0000000  1.0460000  1
     52     50     53     64     1  0.0000000  0.0000000  3
     51     50     53     54     1  0.0000000  0.6527040  3
     51     50     53     55     1  0.0000000  0.6527040  3
     51     50     53     64     1  0.0000000  1.0460000  1
     51     50     53     64     1  0.0000000  0.0000000  3
     50     53     55     56     1  0.0000000  0.6527040  3
     50     53     55     57     1  0.0000000  0.6527040  3
     49     50     53     54     1  0.0000000  1.0460000  1
     49     50     53     54     1  0.0000000  0.0000000  3
     47     49     50     51     1  0.0000000  1.6024720  3
     47     49     50     52     1  0.0000000  1.6024720  3
    109    107    110    111     1  0.0000000  0.6276000  3
    109    107    110    112     1  0.0000000  0.6276000  3
    108    107    110    111     1  0.0000000  0.6276000  3
    108    107    110    112     1  0.0000000  0.6276000  3
    106    104    107    108     1  0.0000000  0.6276000  3
    106    104    107    109     1  0.0000000  0.6276000  3
    106    104    107    110     1  0.0000000  0.6694400  3
    105    104    107    108     1  0.0000000  0.6276000  3
    105    104    107    109     1  0.0000000  0.6276000  3
    105    104    107    110     1  0.0000000  0.6694400  3
    104    107    110    111     1  0.0000000  0.6694400  3
    104    107    110    112     1  0.0000000  0.6694400  3
    103    101    104    105     1  0.0000000  0.6276000  3
    103    101    104    106     1  0.0000000  0.6276000  3
    103    101    104    107     1  0.0000000  0.6694400  3
    102    101    104    105     1  0.0000000  0.6276000  3
    102    101    104    106     1  0.0000000  0.6276000  3
    102    101    104    107     1  0.0000000  0.6694400  3
    101    104    107    108     1  0.0000000  0.6694400  3
    101    104    107    109     1  0.0000000  0.6694400  3
    100     98    101    102     1  0.0000000  0.6276000  3
    100     98    101    103     1  0.0000000  0.6276000  3
    100     98    101    104     1  0.0000000  0.6694400  3
     99     98    101    102     1  0.0000000  0.6276000  3
     99     98    101    103     1  0.0000000  0.6276000  3
     99     98    101    104     1  0.0000000  0.6694400  3
     98    101    104    105     1  0.0000000  0.6694400  3
     98    101    104    106     1  0.0000000  0.6694400  3
     97     95     98     99     1  0.0000000  0.6276000  3
     97     95     98    100     1  0.0000000  0.6276000  3
     97     95     98    101     1  0.0000000  0.6694400  3
     96     95     98     99     1  0.0000000  0.6276000  3
     96     95     98    100     1  0.0000000  0.6276000  3
     96     95     98    101     1  0.0000000  0.6694400  3
     95     98    101    102     1  0.0000000  0.6694400  3
     95     98    101    103     1  0.0000000  0.6694400  3
     94     92     95     96     1  0.0000000  0.6276000  3
     94     92     95     97     1  0.0000000  0.6276000  3
     94     92     95     98     1  0.0000000  0.6694400  3
     93     92     95     96     1  0.0000000  0.6276000  3
     93     92     95     97     1  0.0000000  0.6276000  3
     93     92     95     98     1  0.0000000  0.6694400  3
     92     95     98     99     1  0.0000000  0.6694400  3
     92     95     98    100     1  0.0000000  0.6694400  3
     91     89     92     93     1  0.0000000  0.6276000  3
     91     89     92     94     1  0.0000000  0.6276000  3
     91     89     92     95     1  0.0000000  0.6694400  3
     90     89     92     93     1  0.0000000  0.6276000  3
     90     89     92     94     1  0.0000000  0.6276000  3
     90     89     92     95     1  0.0000000  0.6694400  3
     89     92     95     96     1  0.0000000  0.6694400  3
     89     92     95     97     1  0.0000000  0.6694400  3
     88     86     89     90     1  0.0000000  0.6276000  3
     88     86     89     91     1  0.0000000  0.6276000  3
     88     86     89     92     1  0.0000000  0.6694400  3
     87     86     89     90     1  0.0000000  0.6276000  3
     87     86     89     91     1  0.0000000  0.6276000  3
     87     86     89     92     1  0.0000000  0.6694400  3
     86     89     92     93     1  0.0000000  0.6694400  3
     86     89     92     94     1  0.0000000  0.6694400  3
     85     83     86     87     1  0.0000000  0.6276000  3
     85     83     86     88     1  0.0000000  0.6276000  3
     85     83     86     89     1  0.0000000  0.6694400  3
     84     83     86     87     1  0.0000000  0.6276000  3
     84     83     86     88     1  0.0000000  0.6276000  3
     84     83     86     89     1  0.0000000  0.6694400  3
     83     86     89     90     1  0.0000000  0.6694400  3
     83     86     89     91     1  0.0000000  0.6694400  3
     82     80     83     84     1  0.0000000  0.6276000  3
     82     80     83     85     1  0.0000000  0.6276000  3
     82     80     83     86     1  0.0000000  0.6694400  3
     81     80     83     84     1  0.0000000  0.6276000  3
     81     80     83     85     1  0.0000000  0.6276000  3
     81     80     83     86     1  0.0000000  0.6694400  3
     80     83     86     87     1  0.0000000  0.6694400  3
     80     83     86     88     1  0.0000000  0.6694400  3
     79     77     80     81     1  0.0000000  0.6276000  3
     79     77     80     82     1  0.0000000  0.6276000  3
     79     77     80     83     1  0.0000000  0.6694400  3
     78     77     80     81     1  0.0000000  0.6276000  3
     78     77     80     82     1  0.0000000  0.6276000  3
     78     77     80     83     1  0.0000000  0.6694400  3
     77     80     83     84     1  0.0000000  0.6694400  3
     77     80     83     85     1  0.0000000  0.6694400  3
     76     74     77     78     1  0.0000000  0.6276000  3
     76     74     77     79     1  0.0000000  0.6276000  3
     76     74     77     80     1  0.0000000  0.6694400  3
     75     74     77     78     1  0.0000000  0.6276000  3
     75     74     77     79     1  0.0000000  0.6276000  3
     75     74     77     80     1  0.0000000  0.6694400  3
     74     77     80     81     1  0.0000000  0.6694400  3
     74     77     80     82     1  0.0000000  0.6694400  3
     73     71     74     75     1  0.0000000  0.6276000  3
     73     71     74     76     1  0.0000000  0.6276000  3
     73     71     74     77     1  0.0000000  0.6694400  3
     72     71     74     75     1  0.0000000  0.6276000  3
     72     71     74     76     1  0.0000000  0.6276000  3
     72     71     74     77     1  0.0000000  0.6694400  3
     71     74     77     78     1  0.0000000  0.6694400  3
     71     74     77     79     1  0.0000000  0.6694400  3
     70     67     71     72     1  0.0000000  0.6276000  3
     70     67     71     73     1  0.0000000  0.6276000  3
     70     67     71     74     1  0.0000000  0.6694400  3
     69     67     71     72     1  0.0000000  0.6276000  3
     69     67     71     73     1  0.0000000  0.6276000  3
     69     67     71     74     1  0.0000000  0.6694400  3
     68     67     71     72     1  0.0000000  0.6276000  3
     68     67     71     73     1  0.0000000  0.6276000  3
     68     67     71     74     1  0.0000000  0.6694400  3
     67     71     74     75     1  0.0000000  0.6694400  3
     67     71     74     76     1  0.0000000  0.6694400  3
