; Exact Amber Lipid21 v1.0 topology converted by ParmEd
; Explicit [pairs] preserve Lipid21-specific 1-4 scaling.
; Conversion contract: amber-explicit-pairs-v2 (independent of parent defaults).

[ moleculetype ]
; Name nrexcl
PAPC 3

[ atoms ]
; nr type resnr residue atom cgnr charge mass
1 L21_cD 1 PAPC C16X 1 -0.12544700 12.010000
2 L21_hL 1 PAPC H16X 2 0.02904700 1.008000
3 L21_hL 1 PAPC H16Y 3 0.02904700 1.008000
4 L21_hL 1 PAPC H16Z 4 0.02904700 1.008000
5 L21_cD 1 PAPC C15X 5 0.01397500 12.010000
6 L21_hL 1 PAPC H15X 6 0.00929200 1.008000
7 L21_hL 1 PAPC H15Y 7 0.00929200 1.008000
8 L21_cD 1 PAPC C14X 8 -0.02008600 12.010000
9 L21_hL 1 PAPC H14X 9 0.01592900 1.008000
10 L21_hL 1 PAPC H14Y 10 0.01592900 1.008000
11 L21_cD 1 PAPC C13X 11 -0.03309600 12.010000
12 L21_hL 1 PAPC H13X 12 0.01462100 1.008000
13 L21_hL 1 PAPC H13Y 13 0.01462100 1.008000
14 L21_cD 1 PAPC C12X 14 -0.02763300 12.010000
15 L21_hL 1 PAPC H12X 15 0.01136800 1.008000
16 L21_hL 1 PAPC H12Y 16 0.01136800 1.008000
17 L21_cD 1 PAPC C11X 17 -0.02520600 12.010000
18 L21_hL 1 PAPC H11X 18 0.01433400 1.008000
19 L21_hL 1 PAPC H11Y 19 0.01433400 1.008000
20 L21_cD 1 PAPC C10X 20 -0.02883100 12.010000
21 L21_hL 1 PAPC H10X 21 0.01469100 1.008000
22 L21_hL 1 PAPC H10Y 22 0.01469100 1.008000
23 L21_cD 1 PAPC C9X 23 -0.03047200 12.010000
24 L21_hL 1 PAPC H9X 24 0.01389700 1.008000
25 L21_hL 1 PAPC H9Y 25 0.01389700 1.008000
26 L21_cD 1 PAPC C8X 26 -0.01579300 12.010000
27 L21_hL 1 PAPC H8X 27 0.00906700 1.008000
28 L21_hL 1 PAPC H8Y 28 0.00906700 1.008000
29 L21_cD 1 PAPC C7X 29 -0.01963000 12.010000
30 L21_hL 1 PAPC H7X 30 0.01104100 1.008000
31 L21_hL 1 PAPC H7Y 31 0.01104100 1.008000
32 L21_cD 1 PAPC C6X 32 -0.02442700 12.010000
33 L21_hL 1 PAPC H6X 33 0.01333400 1.008000
34 L21_hL 1 PAPC H6Y 34 0.01333400 1.008000
35 L21_cD 1 PAPC C5X 35 -0.02938700 12.010000
36 L21_hL 1 PAPC H5X 36 0.01676300 1.008000
37 L21_hL 1 PAPC H5Y 37 0.01676300 1.008000
38 L21_cD 1 PAPC C4X 38 -0.03009900 12.010000
39 L21_hL 1 PAPC H4X 39 0.02087700 1.008000
40 L21_hL 1 PAPC H4Y 40 0.02087700 1.008000
41 L21_cD 1 PAPC C3X 41 -0.00488200 12.010000
42 L21_hL 1 PAPC H3X 42 0.01900700 1.008000
43 L21_hL 1 PAPC H3Y 43 0.01900700 1.008000
44 L21_cD 1 PAPC C2X 44 -0.14925900 12.010000
45 L21_hL 1 PAPC H2X 45 0.04734500 1.008000
46 L21_hL 1 PAPC H2Y 46 0.04734500 1.008000
47 L21_cC 1 PAPC C11 47 0.91040300 12.010000
48 L21_oC 1 PAPC O12 48 -0.67156600 16.000000
49 L21_oS 1 PAPC O11 49 -0.57548900 16.000000
50 L21_cA 1 PAPC C1 50 0.19693900 12.010000
51 L21_hE 1 PAPC HR 51 0.07046900 1.008000
52 L21_hE 1 PAPC HS 52 0.07046900 1.008000
53 L21_cA 1 PAPC C2 53 0.28124200 12.010000
54 L21_hE 1 PAPC HX 54 0.06325300 1.008000
55 L21_cA 1 PAPC C3 55 0.01745900 12.010000
56 L21_hE 1 PAPC HA 56 0.09559100 1.008000
57 L21_hE 1 PAPC HB 57 0.09559100 1.008000
58 L21_oT 1 PAPC O31 58 -0.50948000 16.000000
59 L21_pA 1 PAPC P31 59 1.33972100 30.970000
60 L21_oT 1 PAPC O32 60 -0.50817600 16.000000
61 L21_cA 1 PAPC C31 61 0.16680100 12.010000
62 L21_hE 1 PAPC H1A 62 0.07853400 1.008000
63 L21_hE 1 PAPC H1B 63 0.07853400 1.008000
64 L21_cA 1 PAPC C32 64 -0.17082400 12.010000
65 L21_hX 1 PAPC H2A 65 0.13641500 1.008000
66 L21_hX 1 PAPC H2B 66 0.13641500 1.008000
67 L21_nA 1 PAPC N31 67 0.24526200 14.010000
68 L21_cA 1 PAPC C33 68 -0.33897300 12.010000
69 L21_hX 1 PAPC H3A 69 0.17223000 1.008000
70 L21_hX 1 PAPC H3B 70 0.17223000 1.008000
71 L21_hX 1 PAPC H3C 71 0.17223000 1.008000
72 L21_cA 1 PAPC C34 72 -0.33897300 12.010000
73 L21_hX 1 PAPC H4A 73 0.17223000 1.008000
74 L21_hX 1 PAPC H4B 74 0.17223000 1.008000
75 L21_hX 1 PAPC H4C 75 0.17223000 1.008000
76 L21_cA 1 PAPC C35 76 -0.33897300 12.010000
77 L21_hX 1 PAPC H5A 77 0.17223000 1.008000
78 L21_hX 1 PAPC H5B 78 0.17223000 1.008000
79 L21_hX 1 PAPC H5C 79 0.17223000 1.008000
80 L21_oP 1 PAPC O33 80 -0.87581200 16.000000
81 L21_oP 1 PAPC O34 81 -0.87581200 16.000000
82 L21_oS 1 PAPC O21 82 -0.55294800 16.000000
83 L21_cC 1 PAPC C21 83 0.89761300 12.010000
84 L21_oC 1 PAPC O22 84 -0.67375500 16.000000
85 L21_cD 1 PAPC C16Y 85 0.03910000 12.010000
86 L21_hL 1 PAPC H16U 86 0.02884800 1.008000
87 L21_hL 1 PAPC H16V 87 0.02884800 1.008000
88 L21_cB 1 PAPC C15Y 88 -0.24414900 12.010000
89 L21_hB 1 PAPC H15U 89 0.13279300 1.008000
90 L21_cB 1 PAPC C14Y 90 -0.22476900 12.010000
91 L21_hB 1 PAPC H14U 91 0.12961600 1.008000
92 L21_cD 1 PAPC C13Y 92 0.05819700 12.010000
93 L21_hL 1 PAPC H13U 93 0.06135000 1.008000
94 L21_hL 1 PAPC H13V 94 0.06135000 1.008000
95 L21_cB 1 PAPC C12Y 95 -0.22016400 12.010000
96 L21_hB 1 PAPC H12U 96 0.13198600 1.008000
97 L21_cB 1 PAPC C11Y 97 -0.22870400 12.010000
98 L21_hB 1 PAPC H11U 98 0.13134100 1.008000
99 L21_cD 1 PAPC C10Y 99 0.09540600 12.010000
100 L21_hL 1 PAPC H10U 100 0.05114000 1.008000
101 L21_hL 1 PAPC H10V 101 0.05114000 1.008000
102 L21_cB 1 PAPC C9Y 102 -0.22869400 12.010000
103 L21_hB 1 PAPC H9U 103 0.13216700 1.008000
104 L21_cB 1 PAPC C8Y 104 -0.22852700 12.010000
105 L21_hB 1 PAPC H8U 105 0.13473500 1.008000
106 L21_cD 1 PAPC C7Y 106 0.05578400 12.010000
107 L21_hL 1 PAPC H7U 107 0.06277500 1.008000
108 L21_hL 1 PAPC H7V 108 0.06277500 1.008000
109 L21_cB 1 PAPC C6Y 109 -0.20678600 12.010000
110 L21_hB 1 PAPC H6U 110 0.12985800 1.008000
111 L21_cB 1 PAPC C5Y 111 -0.26789000 12.010000
112 L21_hB 1 PAPC H5U 112 0.14357700 1.008000
113 L21_cD 1 PAPC C4Y 113 0.03138200 12.010000
114 L21_hL 1 PAPC H4U 114 0.03870800 1.008000
115 L21_hL 1 PAPC H4V 115 0.03870800 1.008000
116 L21_cD 1 PAPC C3Y 116 0.02562600 12.010000
117 L21_hL 1 PAPC H3U 117 0.02511700 1.008000
118 L21_hL 1 PAPC H3V 118 0.02511700 1.008000
119 L21_cD 1 PAPC C2Y 119 -0.12393500 12.010000
120 L21_hL 1 PAPC H2U 120 0.02453500 1.008000
121 L21_hL 1 PAPC H2V 121 0.02453500 1.008000
122 L21_cD 1 PAPC C17Y 122 -0.02839800 12.010000
123 L21_hL 1 PAPC H17U 123 0.01958100 1.008000
124 L21_hL 1 PAPC H17V 124 0.01958100 1.008000
125 L21_cD 1 PAPC C18Y 125 -0.01977200 12.010000
126 L21_hL 1 PAPC H18U 126 0.01421800 1.008000
127 L21_hL 1 PAPC H18V 127 0.01421800 1.008000
128 L21_cD 1 PAPC C19Y 128 0.02495700 12.010000
129 L21_hL 1 PAPC H19U 129 0.00542600 1.008000
130 L21_hL 1 PAPC H19V 130 0.00542600 1.008000
131 L21_cD 1 PAPC C20Y 131 -0.10930200 12.010000
132 L21_hL 1 PAPC H20U 132 0.02372300 1.008000
133 L21_hL 1 PAPC H20V 133 0.02372300 1.008000
134 L21_hL 1 PAPC H20W 134 0.02372300 1.008000

[ bonds ]
;    ai     aj funct         c0         c1         c2         c3
     44     47     1   0.15080 274721.440000
     41     44     1   0.15350 253634.080000
     38     41     1   0.15350 253634.080000
     35     38     1   0.15350 253634.080000
     32     35     1   0.15350 253634.080000
     29     32     1   0.15350 253634.080000
     26     29     1   0.15350 253634.080000
     23     26     1   0.15350 253634.080000
     20     23     1   0.15350 253634.080000
     17     20     1   0.15350 253634.080000
     14     17     1   0.15350 253634.080000
     11     14     1   0.15350 253634.080000
      8     11     1   0.15350 253634.080000
      5      8     1   0.15350 253634.080000
      1      5     1   0.15350 253634.080000
     83     84     1   0.12140 542246.400000
     83    119     1   0.15080 274721.440000
     82     83     1   0.13430 344175.840000
     67     68     1   0.14990 245684.480000
     67     72     1   0.14990 245684.480000
     67     76     1   0.14990 245684.480000
     64     67     1   0.14990 245684.480000
     61     64     1   0.15350 253634.080000
     60     61     1   0.14390 252295.200000
     59     60     1   0.16100 192464.000000
     59     80     1   0.14800 439320.000000
     59     81     1   0.14800 439320.000000
     58     59     1   0.16100 192464.000000
     55     58     1   0.14390 252295.200000
     53     55     1   0.15350 253634.080000
     53     82     1   0.14390 252295.200000
     50     53     1   0.15350 253634.080000
     49     50     1   0.14390 252295.200000
     47     48     1   0.12140 542246.400000
     47     49     1   0.13430 344175.840000
    128    131     1   0.15350 253634.080000
    125    128     1   0.15350 253634.080000
    122    125     1   0.15350 253634.080000
    116    119     1   0.15350 253634.080000
    113    116     1   0.15350 253634.080000
    111    113     1   0.15080 274721.440000
    109    111     1   0.13240 493460.960000
    106    109     1   0.15080 274721.440000
    104    106     1   0.15080 274721.440000
    102    104     1   0.13240 493460.960000
     99    102     1   0.15080 274721.440000
     97     99     1   0.15080 274721.440000
     95     97     1   0.13240 493460.960000
     92     95     1   0.15080 274721.440000
     90     92     1   0.15080 274721.440000
     88     90     1   0.13240 493460.960000
     85     88     1   0.15080 274721.440000
     85    122     1   0.15350 253634.080000
     44     45     1   0.10920 282252.640000
     44     46     1   0.10920 282252.640000
     41     42     1   0.10920 282252.640000
     41     43     1   0.10920 282252.640000
     38     39     1   0.10920 282252.640000
     38     40     1   0.10920 282252.640000
     35     36     1   0.10920 282252.640000
     35     37     1   0.10920 282252.640000
     32     33     1   0.10920 282252.640000
     32     34     1   0.10920 282252.640000
     29     30     1   0.10920 282252.640000
     29     31     1   0.10920 282252.640000
     26     27     1   0.10920 282252.640000
     26     28     1   0.10920 282252.640000
     23     24     1   0.10920 282252.640000
     23     25     1   0.10920 282252.640000
     20     21     1   0.10920 282252.640000
     20     22     1   0.10920 282252.640000
     17     18     1   0.10920 282252.640000
     17     19     1   0.10920 282252.640000
     14     15     1   0.10920 282252.640000
     14     16     1   0.10920 282252.640000
     11     12     1   0.10920 282252.640000
     11     13     1   0.10920 282252.640000
      8      9     1   0.10920 282252.640000
      8     10     1   0.10920 282252.640000
      5      6     1   0.10920 282252.640000
      5      7     1   0.10920 282252.640000
      1      2     1   0.10920 282252.640000
      1      3     1   0.10920 282252.640000
      1      4     1   0.10920 282252.640000
     76     77     1   0.10910 283424.160000
     76     78     1   0.10910 283424.160000
     76     79     1   0.10910 283424.160000
     72     73     1   0.10910 283424.160000
     72     74     1   0.10910 283424.160000
     72     75     1   0.10910 283424.160000
     68     69     1   0.10910 283424.160000
     68     70     1   0.10910 283424.160000
     68     71     1   0.10910 283424.160000
     64     65     1   0.10910 283424.160000
     64     66     1   0.10910 283424.160000
     61     62     1   0.10930 281081.120000
     61     63     1   0.10930 281081.120000
     55     56     1   0.10930 281081.120000
     55     57     1   0.10930 281081.120000
     53     54     1   0.10930 281081.120000
     50     51     1   0.10930 281081.120000
     50     52     1   0.10930 281081.120000
    131    132     1   0.10920 282252.640000
    131    133     1   0.10920 282252.640000
    131    134     1   0.10920 282252.640000
    128    129     1   0.10920 282252.640000
    128    130     1   0.10920 282252.640000
    125    126     1   0.10920 282252.640000
    125    127     1   0.10920 282252.640000
    122    123     1   0.10920 282252.640000
    122    124     1   0.10920 282252.640000
    119    120     1   0.10920 282252.640000
    119    121     1   0.10920 282252.640000
    116    117     1   0.10920 282252.640000
    116    118     1   0.10920 282252.640000
    113    114     1   0.10920 282252.640000
    113    115     1   0.10920 282252.640000
    111    112     1   0.10870 288110.240000
    109    110     1   0.10870 288110.240000
    106    107     1   0.10920 282252.640000
    106    108     1   0.10920 282252.640000
    104    105     1   0.10870 288110.240000
    102    103     1   0.10870 288110.240000
     99    100     1   0.10920 282252.640000
     99    101     1   0.10920 282252.640000
     97     98     1   0.10870 288110.240000
     95     96     1   0.10870 288110.240000
     92     93     1   0.10920 282252.640000
     92     94     1   0.10920 282252.640000
     90     91     1   0.10870 288110.240000
     88     89     1   0.10870 288110.240000
     85     86     1   0.10920 282252.640000
     85     87     1   0.10920 282252.640000


[ pairs ]
; ai aj funct fudgeQQ qi qj sigma epsilon; source-specific LJ and charge scaling
1 9 2 0.83333333333333 -0.12544700010427 0.015929000016463 0.30005468824211 0.069194303392389
1 10 2 0.83333333333333 -0.12544700010427 0.015929000016463 0.30005468824211 0.069194303392389
1 11 2 0.83333333333333 -0.12544700010427 -0.033096000010976 0.33996695084507 0.076288266607901
2 6 2 0.83333333333333 0.029046999994512 0.0092920000219511 0.26014242576773 0.020919999936173
2 7 2 0.83333333333333 0.029046999994512 0.0092920000219511 0.26014242576773 0.020919999936173
2 8 2 0.83333333333333 0.029046999994512 -0.020086000010976 0.30005468824211 0.069194303392389
3 6 2 0.83333333333333 0.029046999994512 0.0092920000219511 0.26014242576773 0.020919999936173
3 7 2 0.83333333333333 0.029046999994512 0.0092920000219511 0.26014242576773 0.020919999936173
3 8 2 0.83333333333333 0.029046999994512 -0.020086000010976 0.30005468824211 0.069194303392389
4 6 2 0.83333333333333 0.029046999994512 0.0092920000219511 0.26014242576773 0.020919999936173
4 7 2 0.83333333333333 0.029046999994512 0.0092920000219511 0.26014242576773 0.020919999936173
4 8 2 0.83333333333333 0.029046999994512 -0.020086000010976 0.30005468824211 0.069194303392389
5 12 2 0.83333333333333 0.013974999972561 0.014620999983537 0.30005468824211 0.069194303392389
5 13 2 0.83333333333333 0.013974999972561 0.014620999983537 0.30005468824211 0.069194303392389
5 14 2 0.83333333333333 0.013974999972561 -0.027633000005488 0.33996695084507 0.076288266607901
6 9 2 0.83333333333333 0.0092920000219511 0.015929000016463 0.26014242576773 0.020919999936173
6 10 2 0.83333333333333 0.0092920000219511 0.015929000016463 0.26014242576773 0.020919999936173
6 11 2 0.83333333333333 0.0092920000219511 -0.033096000010976 0.30005468824211 0.069194303392389
7 9 2 0.83333333333333 0.0092920000219511 0.015929000016463 0.26014242576773 0.020919999936173
7 10 2 0.83333333333333 0.0092920000219511 0.015929000016463 0.26014242576773 0.020919999936173
7 11 2 0.83333333333333 0.0092920000219511 -0.033096000010976 0.30005468824211 0.069194303392389
8 15 2 0.83333333333333 -0.020086000010976 0.011367999978049 0.30005468824211 0.069194303392389
8 16 2 0.83333333333333 -0.020086000010976 0.011367999978049 0.30005468824211 0.069194303392389
8 17 2 0.83333333333333 -0.020086000010976 -0.025206000010976 0.33996695084507 0.076288266607901
9 12 2 0.83333333333333 0.015929000016463 0.014620999983537 0.26014242576773 0.020919999936173
9 13 2 0.83333333333333 0.015929000016463 0.014620999983537 0.26014242576773 0.020919999936173
9 14 2 0.83333333333333 0.015929000016463 -0.027633000005488 0.30005468824211 0.069194303392389
10 12 2 0.83333333333333 0.015929000016463 0.014620999983537 0.26014242576773 0.020919999936173
10 13 2 0.83333333333333 0.015929000016463 0.014620999983537 0.26014242576773 0.020919999936173
10 14 2 0.83333333333333 0.015929000016463 -0.027633000005488 0.30005468824211 0.069194303392389
11 18 2 0.83333333333333 -0.033096000010976 0.014333999989024 0.30005468824211 0.069194303392389
11 19 2 0.83333333333333 -0.033096000010976 0.014333999989024 0.30005468824211 0.069194303392389
11 20 2 0.83333333333333 -0.033096000010976 -0.028830999983537 0.33996695084507 0.076288266607901
12 15 2 0.83333333333333 0.014620999983537 0.011367999978049 0.26014242576773 0.020919999936173
12 16 2 0.83333333333333 0.014620999983537 0.011367999978049 0.26014242576773 0.020919999936173
12 17 2 0.83333333333333 0.014620999983537 -0.025206000010976 0.30005468824211 0.069194303392389
13 15 2 0.83333333333333 0.014620999983537 0.011367999978049 0.26014242576773 0.020919999936173
13 16 2 0.83333333333333 0.014620999983537 0.011367999978049 0.26014242576773 0.020919999936173
13 17 2 0.83333333333333 0.014620999983537 -0.025206000010976 0.30005468824211 0.069194303392389
14 21 2 0.83333333333333 -0.027633000005488 0.014690999983537 0.30005468824211 0.069194303392389
14 22 2 0.83333333333333 -0.027633000005488 0.014690999983537 0.30005468824211 0.069194303392389
14 23 2 0.83333333333333 -0.027633000005488 -0.030472000021951 0.33996695084507 0.076288266607901
15 18 2 0.83333333333333 0.011367999978049 0.014333999989024 0.26014242576773 0.020919999936173
15 19 2 0.83333333333333 0.011367999978049 0.014333999989024 0.26014242576773 0.020919999936173
15 20 2 0.83333333333333 0.011367999978049 -0.028830999983537 0.30005468824211 0.069194303392389
16 18 2 0.83333333333333 0.011367999978049 0.014333999989024 0.26014242576773 0.020919999936173
16 19 2 0.83333333333333 0.011367999978049 0.014333999989024 0.26014242576773 0.020919999936173
16 20 2 0.83333333333333 0.011367999978049 -0.028830999983537 0.30005468824211 0.069194303392389
17 24 2 0.83333333333333 -0.025206000010976 0.013896999994512 0.30005468824211 0.069194303392389
17 25 2 0.83333333333333 -0.025206000010976 0.013896999994512 0.30005468824211 0.069194303392389
17 26 2 0.83333333333333 -0.025206000010976 -0.015793000005488 0.33996695084507 0.076288266607901
18 21 2 0.83333333333333 0.014333999989024 0.014690999983537 0.26014242576773 0.020919999936173
18 22 2 0.83333333333333 0.014333999989024 0.014690999983537 0.26014242576773 0.020919999936173
18 23 2 0.83333333333333 0.014333999989024 -0.030472000021951 0.30005468824211 0.069194303392389
19 21 2 0.83333333333333 0.014333999989024 0.014690999983537 0.26014242576773 0.020919999936173
19 22 2 0.83333333333333 0.014333999989024 0.014690999983537 0.26014242576773 0.020919999936173
19 23 2 0.83333333333333 0.014333999989024 -0.030472000021951 0.30005468824211 0.069194303392389
20 27 2 0.83333333333333 -0.028830999983537 0.0090669999945122 0.30005468824211 0.069194303392389
20 28 2 0.83333333333333 -0.028830999983537 0.0090669999945122 0.30005468824211 0.069194303392389
20 29 2 0.83333333333333 -0.028830999983537 -0.01963 0.33996695084507 0.076288266607901
21 24 2 0.83333333333333 0.014690999983537 0.013896999994512 0.26014242576773 0.020919999936173
21 25 2 0.83333333333333 0.014690999983537 0.013896999994512 0.26014242576773 0.020919999936173
21 26 2 0.83333333333333 0.014690999983537 -0.015793000005488 0.30005468824211 0.069194303392389
22 24 2 0.83333333333333 0.014690999983537 0.013896999994512 0.26014242576773 0.020919999936173
22 25 2 0.83333333333333 0.014690999983537 0.013896999994512 0.26014242576773 0.020919999936173
22 26 2 0.83333333333333 0.014690999983537 -0.015793000005488 0.30005468824211 0.069194303392389
23 30 2 0.83333333333333 -0.030472000021951 0.011040999983537 0.30005468824211 0.069194303392389
23 31 2 0.83333333333333 -0.030472000021951 0.011040999983537 0.30005468824211 0.069194303392389
23 32 2 0.83333333333333 -0.030472000021951 -0.024426999994512 0.33996695084507 0.076288266607901
24 27 2 0.83333333333333 0.013896999994512 0.0090669999945122 0.26014242576773 0.020919999936173
24 28 2 0.83333333333333 0.013896999994512 0.0090669999945122 0.26014242576773 0.020919999936173
24 29 2 0.83333333333333 0.013896999994512 -0.01963 0.30005468824211 0.069194303392389
25 27 2 0.83333333333333 0.013896999994512 0.0090669999945122 0.26014242576773 0.020919999936173
25 28 2 0.83333333333333 0.013896999994512 0.0090669999945122 0.26014242576773 0.020919999936173
25 29 2 0.83333333333333 0.013896999994512 -0.01963 0.30005468824211 0.069194303392389
26 33 2 0.83333333333333 -0.015793000005488 0.013333999989024 0.30005468824211 0.069194303392389
26 34 2 0.83333333333333 -0.015793000005488 0.013333999989024 0.30005468824211 0.069194303392389
26 35 2 0.83333333333333 -0.015793000005488 -0.029386999994512 0.33996695084507 0.076288266607901
27 30 2 0.83333333333333 0.0090669999945122 0.011040999983537 0.26014242576773 0.020919999936173
27 31 2 0.83333333333333 0.0090669999945122 0.011040999983537 0.26014242576773 0.020919999936173
27 32 2 0.83333333333333 0.0090669999945122 -0.024426999994512 0.30005468824211 0.069194303392389
28 30 2 0.83333333333333 0.0090669999945122 0.011040999983537 0.26014242576773 0.020919999936173
28 31 2 0.83333333333333 0.0090669999945122 0.011040999983537 0.26014242576773 0.020919999936173
28 32 2 0.83333333333333 0.0090669999945122 -0.024426999994512 0.30005468824211 0.069194303392389
29 36 2 0.83333333333333 -0.01963 0.016763000005488 0.30005468824211 0.069194303392389
29 37 2 0.83333333333333 -0.01963 0.016763000005488 0.30005468824211 0.069194303392389
29 38 2 0.83333333333333 -0.01963 -0.030099000016463 0.33996695084507 0.076288266607901
30 33 2 0.83333333333333 0.011040999983537 0.013333999989024 0.26014242576773 0.020919999936173
30 34 2 0.83333333333333 0.011040999983537 0.013333999989024 0.26014242576773 0.020919999936173
30 35 2 0.83333333333333 0.011040999983537 -0.029386999994512 0.30005468824211 0.069194303392389
31 33 2 0.83333333333333 0.011040999983537 0.013333999989024 0.26014242576773 0.020919999936173
31 34 2 0.83333333333333 0.011040999983537 0.013333999989024 0.26014242576773 0.020919999936173
31 35 2 0.83333333333333 0.011040999983537 -0.029386999994512 0.30005468824211 0.069194303392389
32 39 2 0.83333333333333 -0.024426999994512 0.020876999994512 0.30005468824211 0.069194303392389
32 40 2 0.83333333333333 -0.024426999994512 0.020876999994512 0.30005468824211 0.069194303392389
32 41 2 0.83333333333333 -0.024426999994512 -0.004882 0.33996695084507 0.076288266607901
33 36 2 0.83333333333333 0.013333999989024 0.016763000005488 0.26014242576773 0.020919999936173
33 37 2 0.83333333333333 0.013333999989024 0.016763000005488 0.26014242576773 0.020919999936173
33 38 2 0.83333333333333 0.013333999989024 -0.030099000016463 0.30005468824211 0.069194303392389
34 36 2 0.83333333333333 0.013333999989024 0.016763000005488 0.26014242576773 0.020919999936173
34 37 2 0.83333333333333 0.013333999989024 0.016763000005488 0.26014242576773 0.020919999936173
34 38 2 0.83333333333333 0.013333999989024 -0.030099000016463 0.30005468824211 0.069194303392389
35 42 2 0.83333333333333 -0.029386999994512 0.019006999994512 0.30005468824211 0.069194303392389
35 43 2 0.83333333333333 -0.029386999994512 0.019006999994512 0.30005468824211 0.069194303392389
35 44 2 0.83333333333333 -0.029386999994512 -0.14925900023597 0.33996695084507 0.076288266607901
36 39 2 0.83333333333333 0.016763000005488 0.020876999994512 0.26014242576773 0.020919999936173
36 40 2 0.83333333333333 0.016763000005488 0.020876999994512 0.26014242576773 0.020919999936173
36 41 2 0.83333333333333 0.016763000005488 -0.004882 0.30005468824211 0.069194303392389
37 39 2 0.83333333333333 0.016763000005488 0.020876999994512 0.26014242576773 0.020919999936173
37 40 2 0.83333333333333 0.016763000005488 0.020876999994512 0.26014242576773 0.020919999936173
37 41 2 0.83333333333333 0.016763000005488 -0.004882 0.30005468824211 0.069194303392389
38 45 2 0.83333333333333 -0.030099000016463 0.047345000027439 0.30005468824211 0.069194303392389
38 46 2 0.83333333333333 -0.030099000016463 0.047345000027439 0.30005468824211 0.069194303392389
38 47 2 0.83333333333333 -0.030099000016463 0.9104030007189 0.33996695087407 0.20291752963184
39 42 2 0.83333333333333 0.020876999994512 0.019006999994512 0.26014242576773 0.020919999936173
39 43 2 0.83333333333333 0.020876999994512 0.019006999994512 0.26014242576773 0.020919999936173
39 44 2 0.83333333333333 0.020876999994512 -0.14925900023597 0.30005468824211 0.069194303392389
40 42 2 0.83333333333333 0.020876999994512 0.019006999994512 0.26014242576773 0.020919999936173
40 43 2 0.83333333333333 0.020876999994512 0.019006999994512 0.26014242576773 0.020919999936173
40 44 2 0.83333333333333 0.020876999994512 -0.14925900023597 0.30005468824211 0.069194303392389
41 48 2 0.83333333333333 -0.004882 -0.67156599880366 0.31797957047595 0.31708813257529
41 49 2 0.83333333333333 -0.004882 -0.57548899974207 0.31998409262799 0.28529542121767
42 45 2 0.83333333333333 0.019006999994512 0.047345000027439 0.26014242576773 0.020919999936173
42 46 2 0.83333333333333 0.019006999994512 0.047345000027439 0.26014242576773 0.020919999936173
42 47 2 0.83333333333333 0.019006999994512 0.9104030007189 0.30005468825729 0.061349482798597
43 45 2 0.83333333333333 0.019006999994512 0.047345000027439 0.26014242576773 0.020919999936173
43 46 2 0.83333333333333 0.019006999994512 0.047345000027439 0.26014242576773 0.020919999936173
43 47 2 0.83333333333333 0.019006999994512 0.9104030007189 0.30005468825729 0.061349482798597
44 50 2 0.83333333333333 -0.14925900023597 0.19693900001646 0.33996695084507 0.2288647998237
45 48 2 0.83333333333333 0.047345000027439 -0.67156599880366 0.27806730790153 0.095867483596702
45 49 2 0.83333333333333 0.047345000027439 -0.57548899974207 0.2800718300513 0.086255369632554
46 48 2 0.83333333333333 0.047345000027439 -0.67156599880366 0.27806730790153 0.095867483596702
46 49 2 0.83333333333333 0.047345000027439 -0.57548899974207 0.2800718300513 0.086255369632554
47 51 2 0.83333333333333 0.9104030007189 0.070469000071341 0.29355112761526 0.076870681673027
47 52 2 0.83333333333333 0.9104030007189 0.070469000071341 0.29355112761526 0.076870681673027
47 53 2 0.83333333333333 0.9104030007189 0.28124200018658 0.33996695087407 0.20291752963184
48 50 2 0.83333333333333 -0.67156599880366 0.19693900001646 0.31797957047595 0.31708813257529
49 54 2 0.83333333333333 -0.57548899974207 0.063252999895732 0.27356826939641 0.10807766839674
49 55 2 0.83333333333333 -0.57548899974207 0.017459000016463 0.31998409262799 0.28529542121767
49 82 2 0.83333333333333 -0.57548899974207 -0.55294799778294 0.30000123432245 0.35564000022068
50 56 2 0.83333333333333 0.19693900001646 0.095591000038414 0.29355112776543 0.086700213146672
50 57 2 0.83333333333333 0.19693900001646 0.095591000038414 0.29355112776543 0.086700213146672
50 58 2 0.83333333333333 0.19693900001646 -0.50947999978049 0.31998409262799 0.28529542121767
50 83 2 0.83333333333333 0.19693900001646 0.89761300165182 0.33996695087407 0.20291752963184
51 54 2 0.83333333333333 0.070469000071341 0.063252999895732 0.24713530426422 0.032844400205981
51 55 2 0.83333333333333 0.070469000071341 0.017459000016463 0.29355112776543 0.086700213146672
51 82 2 0.83333333333333 0.070469000071341 -0.55294799778294 0.27356826939641 0.10807766839674
52 54 2 0.83333333333333 0.070469000071341 0.063252999895732 0.24713530426422 0.032844400205981
52 55 2 0.83333333333333 0.070469000071341 0.017459000016463 0.29355112776543 0.086700213146672
52 82 2 0.83333333333333 0.070469000071341 -0.55294799778294 0.27356826939641 0.10807766839674
53 59 2 0.83333333333333 0.28124200018658 1.3397210011908 0.35707220617836 0.30944633210394
53 84 2 0.83333333333333 0.28124200018658 -0.67375499799696 0.31797957047595 0.31708813257529
53 119 2 0.83333333333333 0.28124200018658 -0.12393499997256 0.33996695084507 0.2288647998237
54 56 2 0.83333333333333 0.063252999895732 0.095591000038414 0.24713530426422 0.032844400205981
54 57 2 0.83333333333333 0.063252999895732 0.095591000038414 0.24713530426422 0.032844400205981
54 58 2 0.83333333333333 0.063252999895732 -0.50947999978049 0.27356826939641 0.10807766839674
54 83 2 0.83333333333333 0.063252999895732 0.89761300165182 0.29355112761526 0.076870681673027
55 60 2 0.83333333333333 0.017459000016463 -0.50817599973659 0.31998409262799 0.28529542121767
55 80 2 0.83333333333333 0.017459000016463 -0.87581199958293 0.31797957047595 0.31708813257529
55 81 2 0.83333333333333 0.017459000016463 -0.87581199958293 0.31797957047595 0.31708813257529
55 83 2 0.83333333333333 0.017459000016463 0.89761300165182 0.33996695087407 0.20291752963184
56 59 2 0.83333333333333 0.095591000038414 1.3397210011908 0.31065638299277 0.11722669057481
56 82 2 0.83333333333333 0.095591000038414 -0.55294799778294 0.27356826939641 0.10807766839674
57 59 2 0.83333333333333 0.095591000038414 1.3397210011908 0.31065638299277 0.11722669057481
57 82 2 0.83333333333333 0.095591000038414 -0.55294799778294 0.27356826939641 0.10807766839674
58 61 2 0.83333333333333 -0.50947999978049 0.16680099987378 0.31998409262799 0.28529542121767
58 82 2 0.83333333333333 -0.50947999978049 -0.55294799778294 0.30000123432245 0.35564000022068
59 62 2 0.83333333333333 1.3397210011908 0.07853400009878 0.31065638299277 0.11722669057481
59 63 2 0.83333333333333 1.3397210011908 0.07853400009878 0.31065638299277 0.11722669057481
59 64 2 0.83333333333333 1.3397210011908 -0.17082400026341 0.35707220617836 0.30944633210394
60 65 2 0.83333333333333 -0.50817599973659 0.13641499975305 0.24799947608237 0.10807766872372
60 66 2 0.83333333333333 -0.50817599973659 0.13641499975305 0.24799947608237 0.10807766872372
60 67 2 0.83333333333333 -0.50817599973659 0.24526199985732 0.31250054330942 0.35564000053052
61 68 2 0.83333333333333 0.16680099987378 -0.33897300011524 0.33996695084507 0.2288647998237
61 72 2 0.83333333333333 0.16680099987378 -0.33897300011524 0.33996695084507 0.2288647998237
61 76 2 0.83333333333333 0.16680099987378 -0.33897300011524 0.33996695084507 0.2288647998237
61 80 2 0.83333333333333 0.16680099987378 -0.87581199958293 0.31797957047595 0.31708813257529
61 81 2 0.83333333333333 0.16680099987378 -0.87581199958293 0.31797957047595 0.31708813257529
62 65 2 0.83333333333333 0.07853400009878 0.13641499975305 0.22156651118302 0.032844400019638
62 66 2 0.83333333333333 0.07853400009878 0.13641499975305 0.22156651118302 0.032844400019638
62 67 2 0.83333333333333 0.07853400009878 0.24526199985732 0.2860675785499 0.10807766765337
63 65 2 0.83333333333333 0.07853400009878 0.13641499975305 0.22156651118302 0.032844400019638
63 66 2 0.83333333333333 0.07853400009878 0.13641499975305 0.22156651118302 0.032844400019638
63 67 2 0.83333333333333 0.07853400009878 0.24526199985732 0.2860675785499 0.10807766765337
64 69 2 0.83333333333333 -0.17082400026341 0.17223000005488 0.26798233433913 0.086700213743521
64 70 2 0.83333333333333 -0.17082400026341 0.17223000005488 0.26798233433913 0.086700213743521
64 71 2 0.83333333333333 -0.17082400026341 0.17223000005488 0.26798233433913 0.086700213743521
64 73 2 0.83333333333333 -0.17082400026341 0.17223000005488 0.26798233433913 0.086700213743521
64 74 2 0.83333333333333 -0.17082400026341 0.17223000005488 0.26798233433913 0.086700213743521
64 75 2 0.83333333333333 -0.17082400026341 0.17223000005488 0.26798233433913 0.086700213743521
64 77 2 0.83333333333333 -0.17082400026341 0.17223000005488 0.26798233433913 0.086700213743521
64 78 2 0.83333333333333 -0.17082400026341 0.17223000005488 0.26798233433913 0.086700213743521
64 79 2 0.83333333333333 -0.17082400026341 0.17223000005488 0.26798233433913 0.086700213743521
65 68 2 0.83333333333333 0.13641499975305 -0.33897300011524 0.26798233433913 0.086700213743521
65 72 2 0.83333333333333 0.13641499975305 -0.33897300011524 0.26798233433913 0.086700213743521
65 76 2 0.83333333333333 0.13641499975305 -0.33897300011524 0.26798233433913 0.086700213743521
66 68 2 0.83333333333333 0.13641499975305 -0.33897300011524 0.26798233433913 0.086700213743521
66 72 2 0.83333333333333 0.13641499975305 -0.33897300011524 0.26798233433913 0.086700213743521
66 76 2 0.83333333333333 0.13641499975305 -0.33897300011524 0.26798233433913 0.086700213743521
68 73 2 0.83333333333333 -0.33897300011524 0.17223000005488 0.26798233433913 0.086700213743521
68 74 2 0.83333333333333 -0.33897300011524 0.17223000005488 0.26798233433913 0.086700213743521
68 75 2 0.83333333333333 -0.33897300011524 0.17223000005488 0.26798233433913 0.086700213743521
68 77 2 0.83333333333333 -0.33897300011524 0.17223000005488 0.26798233433913 0.086700213743521
68 78 2 0.83333333333333 -0.33897300011524 0.17223000005488 0.26798233433913 0.086700213743521
68 79 2 0.83333333333333 -0.33897300011524 0.17223000005488 0.26798233433913 0.086700213743521
69 72 2 0.83333333333333 0.17223000005488 -0.33897300011524 0.26798233433913 0.086700213743521
69 76 2 0.83333333333333 0.17223000005488 -0.33897300011524 0.26798233433913 0.086700213743521
70 72 2 0.83333333333333 0.17223000005488 -0.33897300011524 0.26798233433913 0.086700213743521
70 76 2 0.83333333333333 0.17223000005488 -0.33897300011524 0.26798233433913 0.086700213743521
71 72 2 0.83333333333333 0.17223000005488 -0.33897300011524 0.26798233433913 0.086700213743521
71 76 2 0.83333333333333 0.17223000005488 -0.33897300011524 0.26798233433913 0.086700213743521
72 77 2 0.83333333333333 -0.33897300011524 0.17223000005488 0.26798233433913 0.086700213743521
72 78 2 0.83333333333333 -0.33897300011524 0.17223000005488 0.26798233433913 0.086700213743521
72 79 2 0.83333333333333 -0.33897300011524 0.17223000005488 0.26798233433913 0.086700213743521
73 76 2 0.83333333333333 0.17223000005488 -0.33897300011524 0.26798233433913 0.086700213743521
74 76 2 0.83333333333333 0.17223000005488 -0.33897300011524 0.26798233433913 0.086700213743521
75 76 2 0.83333333333333 0.17223000005488 -0.33897300011524 0.26798233433913 0.086700213743521
82 116 2 0.83333333333333 -0.55294799778294 0.025626000010976 0.31998409262799 0.28529542121767
82 120 2 0.83333333333333 -0.55294799778294 0.024535000027439 0.2800718300513 0.086255369632554
82 121 2 0.83333333333333 -0.55294799778294 0.024535000027439 0.2800718300513 0.086255369632554
83 113 2 0.83333333333333 0.89761300165182 0.031382000021951 0.33996695087407 0.20291752963184
83 117 2 0.83333333333333 0.89761300165182 0.025116999994512 0.30005468825729 0.061349482798597
83 118 2 0.83333333333333 0.89761300165182 0.025116999994512 0.30005468825729 0.061349482798597
84 116 2 0.83333333333333 -0.67375499799696 0.025626000010976 0.31797957047595 0.31708813257529
84 120 2 0.83333333333333 -0.67375499799696 0.024535000027439 0.27806730790153 0.095867483596702
84 121 2 0.83333333333333 -0.67375499799696 0.024535000027439 0.27806730790153 0.095867483596702
85 91 2 0.83333333333333 0.0391 0.12961600017561 0.28134581515096 0.057892107742859
85 92 2 0.83333333333333 0.0391 0.058196999829879 0.33996695084507 0.2288647998237
85 126 2 0.83333333333333 0.0391 0.014217999978049 0.30005468824211 0.069194303392389
85 127 2 0.83333333333333 0.0391 0.014217999978049 0.30005468824211 0.069194303392389
85 128 2 0.83333333333333 0.0391 0.024956999994512 0.33996695084507 0.076288266607901
86 89 2 0.83333333333333 0.028847999978049 0.13279299978598 0.24143355271439 0.017502927720476
86 90 2 0.83333333333333 0.028847999978049 -0.22476900007134 0.30005468825729 0.061349482798597
86 123 2 0.83333333333333 0.028847999978049 0.019580999983537 0.26014242576773 0.020919999936173
86 124 2 0.83333333333333 0.028847999978049 0.019580999983537 0.26014242576773 0.020919999936173
86 125 2 0.83333333333333 0.028847999978049 -0.019772000021951 0.30005468824211 0.069194303392389
87 89 2 0.83333333333333 0.028847999978049 0.13279299978598 0.24143355271439 0.017502927720476
87 90 2 0.83333333333333 0.028847999978049 -0.22476900007134 0.30005468825729 0.061349482798597
87 123 2 0.83333333333333 0.028847999978049 0.019580999983537 0.26014242576773 0.020919999936173
87 124 2 0.83333333333333 0.028847999978049 0.019580999983537 0.26014242576773 0.020919999936173
87 125 2 0.83333333333333 0.028847999978049 -0.019772000021951 0.30005468824211 0.069194303392389
88 93 2 0.83333333333333 -0.24414899985183 0.061350000274389 0.30005468825729 0.061349482798597
88 94 2 0.83333333333333 -0.24414899985183 0.061350000274389 0.30005468825729 0.061349482798597
88 95 2 0.83333333333333 -0.24414899985183 -0.22016400015366 0.33996695079448 0.17991200026853
88 123 2 0.83333333333333 -0.24414899985183 0.019580999983537 0.30005468825729 0.061349482798597
88 124 2 0.83333333333333 -0.24414899985183 0.019580999983537 0.30005468825729 0.061349482798597
88 125 2 0.83333333333333 -0.24414899985183 -0.019772000021951 0.33996695087407 0.20291752963184
89 91 2 0.83333333333333 0.13279299978598 0.12961600017561 0.22272467949703 0.014644000015013
89 92 2 0.83333333333333 0.13279299978598 0.058196999829879 0.28134581515096 0.057892107742859
89 122 2 0.83333333333333 0.13279299978598 -0.028397999978049 0.28134581515096 0.057892107742859
90 96 2 0.83333333333333 -0.22476900007134 0.13198600012073 0.28134581517665 0.051328659869652
90 97 2 0.83333333333333 -0.22476900007134 -0.2287040000439 0.33996695079448 0.17991200026853
90 122 2 0.83333333333333 -0.22476900007134 -0.028397999978049 0.33996695087407 0.20291752963184
91 93 2 0.83333333333333 0.12961600017561 0.061350000274389 0.24143355271439 0.017502927720476
91 94 2 0.83333333333333 0.12961600017561 0.061350000274389 0.24143355271439 0.017502927720476
91 95 2 0.83333333333333 0.12961600017561 -0.22016400015366 0.28134581517665 0.051328659869652
92 98 2 0.83333333333333 0.058196999829879 0.13134099976403 0.28134581515096 0.057892107742859
92 99 2 0.83333333333333 0.058196999829879 0.095405999791464 0.33996695084507 0.2288647998237
93 96 2 0.83333333333333 0.061350000274389 0.13198600012073 0.24143355271439 0.017502927720476
93 97 2 0.83333333333333 0.061350000274389 -0.2287040000439 0.30005468825729 0.061349482798597
94 96 2 0.83333333333333 0.061350000274389 0.13198600012073 0.24143355271439 0.017502927720476
94 97 2 0.83333333333333 0.061350000274389 -0.2287040000439 0.30005468825729 0.061349482798597
95 100 2 0.83333333333333 -0.22016400015366 0.05114 0.30005468825729 0.061349482798597
95 101 2 0.83333333333333 -0.22016400015366 0.05114 0.30005468825729 0.061349482798597
95 102 2 0.83333333333333 -0.22016400015366 -0.22869400020854 0.33996695079448 0.17991200026853
96 98 2 0.83333333333333 0.13198600012073 0.13134099976403 0.22272467949703 0.014644000015013
96 99 2 0.83333333333333 0.13198600012073 0.095405999791464 0.28134581515096 0.057892107742859
97 103 2 0.83333333333333 -0.2287040000439 0.132166999775 0.28134581517665 0.051328659869652
97 104 2 0.83333333333333 -0.2287040000439 -0.22852699988476 0.33996695079448 0.17991200026853
98 100 2 0.83333333333333 0.13134099976403 0.05114 0.24143355271439 0.017502927720476
98 101 2 0.83333333333333 0.13134099976403 0.05114 0.24143355271439 0.017502927720476
98 102 2 0.83333333333333 0.13134099976403 -0.22869400020854 0.28134581517665 0.051328659869652
99 105 2 0.83333333333333 0.095405999791464 0.13473499997256 0.28134581515096 0.057892107742859
99 106 2 0.83333333333333 0.095405999791464 0.055783999824391 0.33996695084507 0.2288647998237
100 103 2 0.83333333333333 0.05114 0.132166999775 0.24143355271439 0.017502927720476
100 104 2 0.83333333333333 0.05114 -0.22852699988476 0.30005468825729 0.061349482798597
101 103 2 0.83333333333333 0.05114 0.132166999775 0.24143355271439 0.017502927720476
101 104 2 0.83333333333333 0.05114 -0.22852699988476 0.30005468825729 0.061349482798597
102 107 2 0.83333333333333 -0.22869400020854 0.062774999862805 0.30005468825729 0.061349482798597
102 108 2 0.83333333333333 -0.22869400020854 0.062774999862805 0.30005468825729 0.061349482798597
102 109 2 0.83333333333333 -0.22869400020854 -0.20678600012073 0.33996695079448 0.17991200026853
103 105 2 0.83333333333333 0.132166999775 0.13473499997256 0.22272467949703 0.014644000015013
103 106 2 0.83333333333333 0.132166999775 0.055783999824391 0.28134581515096 0.057892107742859
104 110 2 0.83333333333333 -0.22852699988476 0.12985799981342 0.28134581517665 0.051328659869652
104 111 2 0.83333333333333 -0.22852699988476 -0.26789000016463 0.33996695079448 0.17991200026853
105 107 2 0.83333333333333 0.13473499997256 0.062774999862805 0.24143355271439 0.017502927720476
105 108 2 0.83333333333333 0.13473499997256 0.062774999862805 0.24143355271439 0.017502927720476
105 109 2 0.83333333333333 0.13473499997256 -0.20678600012073 0.28134581517665 0.051328659869652
106 112 2 0.83333333333333 0.055783999824391 0.14357700015915 0.28134581515096 0.057892107742859
106 113 2 0.83333333333333 0.055783999824391 0.031382000021951 0.33996695084507 0.2288647998237
107 110 2 0.83333333333333 0.062774999862805 0.12985799981342 0.24143355271439 0.017502927720476
107 111 2 0.83333333333333 0.062774999862805 -0.26789000016463 0.30005468825729 0.061349482798597
108 110 2 0.83333333333333 0.062774999862805 0.12985799981342 0.24143355271439 0.017502927720476
108 111 2 0.83333333333333 0.062774999862805 -0.26789000016463 0.30005468825729 0.061349482798597
109 114 2 0.83333333333333 -0.20678600012073 0.038707999978049 0.30005468825729 0.061349482798597
109 115 2 0.83333333333333 -0.20678600012073 0.038707999978049 0.30005468825729 0.061349482798597
109 116 2 0.83333333333333 -0.20678600012073 0.025626000010976 0.33996695087407 0.20291752963184
110 112 2 0.83333333333333 0.12985799981342 0.14357700015915 0.22272467949703 0.014644000015013
110 113 2 0.83333333333333 0.12985799981342 0.031382000021951 0.28134581515096 0.057892107742859
111 117 2 0.83333333333333 -0.26789000016463 0.025116999994512 0.30005468825729 0.061349482798597
111 118 2 0.83333333333333 -0.26789000016463 0.025116999994512 0.30005468825729 0.061349482798597
111 119 2 0.83333333333333 -0.26789000016463 -0.12393499997256 0.33996695087407 0.20291752963184
112 114 2 0.83333333333333 0.14357700015915 0.038707999978049 0.24143355271439 0.017502927720476
112 115 2 0.83333333333333 0.14357700015915 0.038707999978049 0.24143355271439 0.017502927720476
112 116 2 0.83333333333333 0.14357700015915 0.025626000010976 0.28134581515096 0.057892107742859
113 120 2 0.83333333333333 0.031382000021951 0.024535000027439 0.30005468824211 0.069194303392389
113 121 2 0.83333333333333 0.031382000021951 0.024535000027439 0.30005468824211 0.069194303392389
114 117 2 0.83333333333333 0.038707999978049 0.025116999994512 0.26014242576773 0.020919999936173
114 118 2 0.83333333333333 0.038707999978049 0.025116999994512 0.26014242576773 0.020919999936173
114 119 2 0.83333333333333 0.038707999978049 -0.12393499997256 0.30005468824211 0.069194303392389
115 117 2 0.83333333333333 0.038707999978049 0.025116999994512 0.26014242576773 0.020919999936173
115 118 2 0.83333333333333 0.038707999978049 0.025116999994512 0.26014242576773 0.020919999936173
115 119 2 0.83333333333333 0.038707999978049 -0.12393499997256 0.30005468824211 0.069194303392389
117 120 2 0.83333333333333 0.025116999994512 0.024535000027439 0.26014242576773 0.020919999936173
117 121 2 0.83333333333333 0.025116999994512 0.024535000027439 0.26014242576773 0.020919999936173
118 120 2 0.83333333333333 0.025116999994512 0.024535000027439 0.26014242576773 0.020919999936173
118 121 2 0.83333333333333 0.025116999994512 0.024535000027439 0.26014242576773 0.020919999936173
122 129 2 0.83333333333333 -0.028397999978049 0.005426 0.30005468824211 0.069194303392389
122 130 2 0.83333333333333 -0.028397999978049 0.005426 0.30005468824211 0.069194303392389
122 131 2 0.83333333333333 -0.028397999978049 -0.10930199974756 0.33996695084507 0.076288266607901
123 126 2 0.83333333333333 0.019580999983537 0.014217999978049 0.26014242576773 0.020919999936173
123 127 2 0.83333333333333 0.019580999983537 0.014217999978049 0.26014242576773 0.020919999936173
123 128 2 0.83333333333333 0.019580999983537 0.024956999994512 0.30005468824211 0.069194303392389
124 126 2 0.83333333333333 0.019580999983537 0.014217999978049 0.26014242576773 0.020919999936173
124 127 2 0.83333333333333 0.019580999983537 0.014217999978049 0.26014242576773 0.020919999936173
124 128 2 0.83333333333333 0.019580999983537 0.024956999994512 0.30005468824211 0.069194303392389
125 132 2 0.83333333333333 -0.019772000021951 0.023723000005488 0.30005468824211 0.069194303392389
125 133 2 0.83333333333333 -0.019772000021951 0.023723000005488 0.30005468824211 0.069194303392389
125 134 2 0.83333333333333 -0.019772000021951 0.023723000005488 0.30005468824211 0.069194303392389
126 129 2 0.83333333333333 0.014217999978049 0.005426 0.26014242576773 0.020919999936173
126 130 2 0.83333333333333 0.014217999978049 0.005426 0.26014242576773 0.020919999936173
126 131 2 0.83333333333333 0.014217999978049 -0.10930199974756 0.30005468824211 0.069194303392389
127 129 2 0.83333333333333 0.014217999978049 0.005426 0.26014242576773 0.020919999936173
127 130 2 0.83333333333333 0.014217999978049 0.005426 0.26014242576773 0.020919999936173
127 131 2 0.83333333333333 0.014217999978049 -0.10930199974756 0.30005468824211 0.069194303392389
129 132 2 0.83333333333333 0.005426 0.023723000005488 0.26014242576773 0.020919999936173
129 133 2 0.83333333333333 0.005426 0.023723000005488 0.26014242576773 0.020919999936173
129 134 2 0.83333333333333 0.005426 0.023723000005488 0.26014242576773 0.020919999936173
130 132 2 0.83333333333333 0.005426 0.023723000005488 0.26014242576773 0.020919999936173
130 133 2 0.83333333333333 0.005426 0.023723000005488 0.26014242576773 0.020919999936173
130 134 2 0.83333333333333 0.005426 0.023723000005488 0.26014242576773 0.020919999936173

[ angles ]
;    ai     aj     ak funct         c0         c1         c2         c3
     44     47     48     1   123.1100526 569.275040
     44     47     49     1   111.9600481 579.567680
     41     44     47     1   110.5300474 533.794720
     38     41     44     1   112.0500483 394.969600
     35     38     41     1   112.0500483 394.969600
     32     35     38     1   112.0500483 394.969600
     29     32     35     1   112.0500483 394.969600
     26     29     32     1   112.0500483 394.969600
     23     26     29     1   112.0500483 394.969600
     20     23     26     1   112.0500483 394.969600
     17     20     23     1   112.0500483 394.969600
     14     17     20     1   112.0500483 394.969600
     11     14     17     1   112.0500483 394.969600
      8     11     14     1   112.0500483 394.969600
      5      8     11     1   112.0500483 394.969600
      1      5      8     1   112.0500483 394.969600
     84     83    119     1   123.1100526 569.275040
     83    119    116     1   110.5300474 533.794720
     82     83     84     1   123.3300529 635.382240
     82     83    119     1   111.9600481 579.567680
     80     59     81     1   119.9000514 1171.520000
     72     67     76     1   110.6400473 525.845120
     68     67     72     1   110.6400473 525.845120
     68     67     76     1   110.6400473 525.845120
     64     67     68     1   110.6400473 525.845120
     64     67     72     1   110.6400473 525.845120
     64     67     76     1   110.6400473 525.845120
     61     64     67     1   114.3200492 539.317600
     60     59     80     1   108.2300464 836.800000
     60     59     81     1   108.2300464 836.800000
     60     61     64     1   108.4200467 567.183040
     59     60     61     1   120.5000516 836.800000
     58     59     60     1   102.6000440 753.120000
     58     59     80     1   108.2300464 836.800000
     58     59     81     1   108.2300464 836.800000
     55     53     82     1   108.4200467 567.183040
     55     58     59     1   120.5000516 836.800000
     53     55     58     1   108.4200467 567.183040
     53     82     83     1   115.1400492 532.455840
     50     53     55     1   110.6300475 528.941280
     50     53     82     1   108.4200467 567.183040
     49     50     53     1   108.4200467 567.183040
     48     47     49     1   123.3300529 635.382240
     47     49     50     1   115.1400492 532.455840
    125    128    131     1   112.0500483 394.969600
    122    125    128     1   112.0500483 394.969600
    113    116    119     1   112.0500483 394.969600
    111    113    116     1   111.4400476 531.619040
    109    111    113     1   123.4200531 538.313440
    106    109    111     1   123.4200531 538.313440
    104    106    109     1   112.0800478 534.966240
    102    104    106     1   123.4200531 538.313440
     99    102    104     1   123.4200531 538.313440
     97     99    102     1   112.0800478 534.966240
     95     97     99     1   123.4200531 538.313440
     92     95     97     1   123.4200531 538.313440
     90     92     95     1   112.0800478 534.966240
     88     85    122     1   111.4400476 531.619040
     88     90     92     1   123.4200531 538.313440
     85     88     90     1   123.4200531 538.313440
     85    122    125     1   112.0500483 394.969600
     46     44     47     1   109.6800468 394.969600
     45     44     46     1   108.3500467 329.950240
     45     44     47     1   109.6800468 394.969600
     43     41     44     1   110.0500475 388.024160
     42     41     43     1   108.3500467 329.950240
     42     41     44     1   110.0500475 388.024160
     41     44     45     1   110.0500475 388.024160
     41     44     46     1   110.0500475 388.024160
     40     38     41     1   110.0500475 388.024160
     39     38     40     1   108.3500467 329.950240
     39     38     41     1   110.0500475 388.024160
     38     41     42     1   110.0500475 388.024160
     38     41     43     1   110.0500475 388.024160
     37     35     38     1   110.0500475 388.024160
     36     35     37     1   108.3500467 329.950240
     36     35     38     1   110.0500475 388.024160
     35     38     39     1   110.0500475 388.024160
     35     38     40     1   110.0500475 388.024160
     34     32     35     1   110.0500475 388.024160
     33     32     34     1   108.3500467 329.950240
     33     32     35     1   110.0500475 388.024160
     32     35     36     1   110.0500475 388.024160
     32     35     37     1   110.0500475 388.024160
     31     29     32     1   110.0500475 388.024160
     30     29     31     1   108.3500467 329.950240
     30     29     32     1   110.0500475 388.024160
     29     32     33     1   110.0500475 388.024160
     29     32     34     1   110.0500475 388.024160
     28     26     29     1   110.0500475 388.024160
     27     26     28     1   108.3500467 329.950240
     27     26     29     1   110.0500475 388.024160
     26     29     30     1   110.0500475 388.024160
     26     29     31     1   110.0500475 388.024160
     25     23     26     1   110.0500475 388.024160
     24     23     25     1   108.3500467 329.950240
     24     23     26     1   110.0500475 388.024160
     23     26     27     1   110.0500475 388.024160
     23     26     28     1   110.0500475 388.024160
     22     20     23     1   110.0500475 388.024160
     21     20     22     1   108.3500467 329.950240
     21     20     23     1   110.0500475 388.024160
     20     23     24     1   110.0500475 388.024160
     20     23     25     1   110.0500475 388.024160
     19     17     20     1   110.0500475 388.024160
     18     17     19     1   108.3500467 329.950240
     18     17     20     1   110.0500475 388.024160
     17     20     21     1   110.0500475 388.024160
     17     20     22     1   110.0500475 388.024160
     16     14     17     1   110.0500475 388.024160
     15     14     16     1   108.3500467 329.950240
     15     14     17     1   110.0500475 388.024160
     14     17     18     1   110.0500475 388.024160
     14     17     19     1   110.0500475 388.024160
     13     11     14     1   110.0500475 388.024160
     12     11     13     1   108.3500467 329.950240
     12     11     14     1   110.0500475 388.024160
     11     14     15     1   110.0500475 388.024160
     11     14     16     1   110.0500475 388.024160
     10      8     11     1   110.0500475 388.024160
      9      8     10     1   108.3500467 329.950240
      9      8     11     1   110.0500475 388.024160
      8     11     12     1   110.0500475 388.024160
      8     11     13     1   110.0500475 388.024160
      7      5      8     1   110.0500475 388.024160
      6      5      7     1   108.3500467 329.950240
      6      5      8     1   110.0500475 388.024160
      5      8      9     1   110.0500475 388.024160
      5      8     10     1   110.0500475 388.024160
      4      1      5     1   110.0500475 388.024160
      3      1      4     1   108.3500467 329.950240
      3      1      5     1   110.0500475 388.024160
      2      1      3     1   108.3500467 329.950240
      2      1      4     1   108.3500467 329.950240
      2      1      5     1   110.0500475 388.024160
      1      5      6     1   110.0500475 388.024160
      1      5      7     1   110.0500475 388.024160
     83    119    120     1   109.6800468 394.969600
     83    119    121     1   109.6800468 394.969600
     78     76     79     1   110.7400473 326.686720
     77     76     78     1   110.7400473 326.686720
     77     76     79     1   110.7400473 326.686720
     74     72     75     1   110.7400473 326.686720
     73     72     74     1   110.7400473 326.686720
     73     72     75     1   110.7400473 326.686720
     70     68     71     1   110.7400473 326.686720
     69     68     70     1   110.7400473 326.686720
     69     68     71     1   110.7400473 326.686720
     67     68     69     1   107.9100461 410.199360
     67     68     70     1   107.9100461 410.199360
     67     68     71     1   107.9100461 410.199360
     67     72     73     1   107.9100461 410.199360
     67     72     74     1   107.9100461 410.199360
     67     72     75     1   107.9100461 410.199360
     67     76     77     1   107.9100461 410.199360
     67     76     78     1   107.9100461 410.199360
     67     76     79     1   107.9100461 410.199360
     66     64     67     1   107.9100461 410.199360
     65     64     66     1   110.7400473 326.686720
     65     64     67     1   107.9100461 410.199360
     63     61     64     1   110.0700471 387.940480
     62     61     63     1   109.5500472 327.858240
     62     61     64     1   110.0700471 387.940480
     61     64     65     1   111.7400478 385.095360
     61     64     66     1   111.7400478 385.095360
     60     61     62     1   108.8200469 425.429120
     60     61     63     1   108.8200469 425.429120
     57     55     58     1   108.8200469 425.429120
     56     55     57     1   109.5500472 327.858240
     56     55     58     1   108.8200469 425.429120
     54     53     55     1   110.0700471 387.940480
     54     53     82     1   108.8200469 425.429120
     53     55     56     1   110.0700471 387.940480
     53     55     57     1   110.0700471 387.940480
     52     50     53     1   110.0700471 387.940480
     51     50     52     1   109.5500472 327.858240
     51     50     53     1   110.0700471 387.940480
     50     53     54     1   110.0700471 387.940480
     49     50     51     1   108.8200469 425.429120
     49     50     52     1   108.8200469 425.429120
    133    131    134     1   108.3500467 329.950240
    132    131    133     1   108.3500467 329.950240
    132    131    134     1   108.3500467 329.950240
    130    128    131     1   110.0500475 388.024160
    129    128    130     1   108.3500467 329.950240
    129    128    131     1   110.0500475 388.024160
    128    131    132     1   110.0500475 388.024160
    128    131    133     1   110.0500475 388.024160
    128    131    134     1   110.0500475 388.024160
    127    125    128     1   110.0500475 388.024160
    126    125    127     1   108.3500467 329.950240
    126    125    128     1   110.0500475 388.024160
    125    128    129     1   110.0500475 388.024160
    125    128    130     1   110.0500475 388.024160
    124    122    125     1   110.0500475 388.024160
    123    122    124     1   108.3500467 329.950240
    123    122    125     1   110.0500475 388.024160
    122    125    126     1   110.0500475 388.024160
    122    125    127     1   110.0500475 388.024160
    120    119    121     1   108.3500467 329.950240
    118    116    119     1   110.0500475 388.024160
    117    116    118     1   108.3500467 329.950240
    117    116    119     1   110.0500475 388.024160
    116    119    120     1   110.0500475 388.024160
    116    119    121     1   110.0500475 388.024160
    115    113    116     1   110.0500475 388.024160
    114    113    115     1   108.3500467 329.950240
    114    113    116     1   110.0500475 388.024160
    113    116    117     1   110.0500475 388.024160
    113    116    118     1   110.0500475 388.024160
    112    111    113     1   117.3000503 382.082880
    111    113    114     1   110.4900475 393.547040
    111    113    115     1   110.4900475 393.547040
    110    109    111     1   120.9400517 418.734720
    109    111    112     1   120.9400517 418.734720
    108    106    109     1   110.4900475 393.547040
    107    106    108     1   108.3500467 329.950240
    107    106    109     1   110.4900475 393.547040
    106    109    110     1   117.3000503 382.082880
    105    104    106     1   117.3000503 382.082880
    104    106    107     1   110.4900475 393.547040
    104    106    108     1   110.4900475 393.547040
    103    102    104     1   120.9400517 418.734720
    102    104    105     1   120.9400517 418.734720
    101     99    102     1   110.4900475 393.547040
    100     99    101     1   108.3500467 329.950240
    100     99    102     1   110.4900475 393.547040
     99    102    103     1   117.3000503 382.082880
     98     97     99     1   117.3000503 382.082880
     97     99    100     1   110.4900475 393.547040
     97     99    101     1   110.4900475 393.547040
     96     95     97     1   120.9400517 418.734720
     95     97     98     1   120.9400517 418.734720
     94     92     95     1   110.4900475 393.547040
     93     92     94     1   108.3500467 329.950240
     93     92     95     1   110.4900475 393.547040
     92     95     96     1   117.3000503 382.082880
     91     90     92     1   117.3000503 382.082880
     90     92     93     1   110.4900475 393.547040
     90     92     94     1   110.4900475 393.547040
     89     88     90     1   120.9400517 418.734720
     88     90     91     1   120.9400517 418.734720
     87     85     88     1   110.4900475 393.547040
     87     85    122     1   110.0500475 388.024160
     86     85     87     1   108.3500467 329.950240
     86     85     88     1   110.4900475 393.547040
     86     85    122     1   110.0500475 388.024160
     85     88     89     1   117.3000503 382.082880
     85    122    123     1   110.0500475 388.024160
     85    122    124     1   110.0500475 388.024160


[ dihedrals ]
;    ai     aj     ak     al funct         c0         c1         c2         c3         c4         c5
     44     47     49     50     1  180.0000771  11.2968000  2
     41     44     47     48     1  180.0000771  0.0000000  2
     41     44     47     49     1  180.0000771  0.0000000  2
     38     41     44     47     1  0.0000000  0.6527040  3
     35     38     41     44     1  0.0000000  0.4184000  1
     35     38     41     44     1  0.0000000  0.4184000  2
     35     38     41     44     1  0.0000000  1.2552000  3
     35     38     41     44     1  0.0000000  0.4184000  4
     35     38     41     44     1  0.0000000  0.4184000  5
     32     35     38     41     1  0.0000000  0.4184000  1
     32     35     38     41     1  0.0000000  0.4184000  2
     32     35     38     41     1  0.0000000  1.2552000  3
     32     35     38     41     1  0.0000000  0.4184000  4
     32     35     38     41     1  0.0000000  0.4184000  5
     29     32     35     38     1  0.0000000  0.4184000  1
     29     32     35     38     1  0.0000000  0.4184000  2
     29     32     35     38     1  0.0000000  1.2552000  3
     29     32     35     38     1  0.0000000  0.4184000  4
     29     32     35     38     1  0.0000000  0.4184000  5
     26     29     32     35     1  0.0000000  0.4184000  1
     26     29     32     35     1  0.0000000  0.4184000  2
     26     29     32     35     1  0.0000000  1.2552000  3
     26     29     32     35     1  0.0000000  0.4184000  4
     26     29     32     35     1  0.0000000  0.4184000  5
     23     26     29     32     1  0.0000000  0.4184000  1
     23     26     29     32     1  0.0000000  0.4184000  2
     23     26     29     32     1  0.0000000  1.2552000  3
     23     26     29     32     1  0.0000000  0.4184000  4
     23     26     29     32     1  0.0000000  0.4184000  5
     20     23     26     29     1  0.0000000  0.4184000  1
     20     23     26     29     1  0.0000000  0.4184000  2
     20     23     26     29     1  0.0000000  1.2552000  3
     20     23     26     29     1  0.0000000  0.4184000  4
     20     23     26     29     1  0.0000000  0.4184000  5
     17     20     23     26     1  0.0000000  0.4184000  1
     17     20     23     26     1  0.0000000  0.4184000  2
     17     20     23     26     1  0.0000000  1.2552000  3
     17     20     23     26     1  0.0000000  0.4184000  4
     17     20     23     26     1  0.0000000  0.4184000  5
     14     17     20     23     1  0.0000000  0.4184000  1
     14     17     20     23     1  0.0000000  0.4184000  2
     14     17     20     23     1  0.0000000  1.2552000  3
     14     17     20     23     1  0.0000000  0.4184000  4
     14     17     20     23     1  0.0000000  0.4184000  5
     11     14     17     20     1  0.0000000  0.4184000  1
     11     14     17     20     1  0.0000000  0.4184000  2
     11     14     17     20     1  0.0000000  1.2552000  3
     11     14     17     20     1  0.0000000  0.4184000  4
     11     14     17     20     1  0.0000000  0.4184000  5
      8     11     14     17     1  0.0000000  0.4184000  1
      8     11     14     17     1  0.0000000  0.4184000  2
      8     11     14     17     1  0.0000000  1.2552000  3
      8     11     14     17     1  0.0000000  0.4184000  4
      8     11     14     17     1  0.0000000  0.4184000  5
      5      8     11     14     1  0.0000000  0.4184000  1
      5      8     11     14     1  0.0000000  0.4184000  2
      5      8     11     14     1  0.0000000  1.2552000  3
      5      8     11     14     1  0.0000000  0.4184000  4
      5      8     11     14     1  0.0000000  0.4184000  5
      1      5      8     11     1  0.0000000  0.4184000  1
      1      5      8     11     1  0.0000000  0.4184000  2
      1      5      8     11     1  0.0000000  1.2552000  3
      1      5      8     11     1  0.0000000  0.4184000  4
      1      5      8     11     1  0.0000000  0.4184000  5
     84     83    119    116     1  180.0000771  0.0000000  2
     83    119    116    113     1  0.0000000  0.6527040  3
     82     83    119    116     1  180.0000771  0.0000000  2
     61     60     59     80     1  0.0000000  0.0000000  1
     61     60     59     80     1  0.0000000  0.8368000  2
     61     60     59     80     1  0.0000000  0.0000000  3
     61     60     59     80     1  0.0000000  0.0000000  4
     61     60     59     80     1  0.0000000  0.0000000  5
     61     60     59     81     1  0.0000000  0.0000000  1
     61     60     59     81     1  0.0000000  0.8368000  2
     61     60     59     81     1  0.0000000  0.0000000  3
     61     60     59     81     1  0.0000000  0.0000000  4
     61     60     59     81     1  0.0000000  0.0000000  5
     61     64     67     68     1  0.0000000  0.6527040  3
     61     64     67     72     1  0.0000000  0.6527040  3
     61     64     67     76     1  0.0000000  0.6527040  3
     60     61     64     67     1  0.0000000  4.1840000  3
     59     60     61     64     1  180.0000771  -3.3472000  2
     59     60     61     64     1  0.0000000  0.0000000  3
     58     55     53     82     1  0.0000000  0.0000000  1
     58     55     53     82     1  0.0000000  0.0000000  2
     58     55     53     82     1  0.0000000  0.0000000  3
     58     55     53     82     1  0.0000000  0.0000000  4
     58     55     53     82     1  0.0000000  0.0000000  5
     58     59     60     61     1  0.0000000  9.6232000  2
     58     59     60     61     1  0.0000000  2.5104000  3
     55     53     82     83     1  0.0000000  -0.4184000  1
     55     53     82     83     1  240.0001029  -1.2552000  2
     55     53     82     83     1  300.0001286  -0.8368000  3
     55     58     59     60     1  0.0000000  9.6232000  2
     55     58     59     60     1  0.0000000  2.5104000  3
     55     58     59     80     1  0.0000000  0.0000000  1
     55     58     59     80     1  0.0000000  0.8368000  2
     55     58     59     80     1  0.0000000  0.0000000  3
     55     58     59     80     1  0.0000000  0.0000000  4
     55     58     59     80     1  0.0000000  0.0000000  5
     55     58     59     81     1  0.0000000  0.0000000  1
     55     58     59     81     1  0.0000000  0.8368000  2
     55     58     59     81     1  0.0000000  0.0000000  3
     55     58     59     81     1  0.0000000  0.0000000  4
     55     58     59     81     1  0.0000000  0.0000000  5
     53     55     58     59     1  180.0000771  -3.3472000  2
     53     55     58     59     1  0.0000000  0.0000000  3
     53     82     83     84     1  180.0000771  5.8576000  1
     53     82     83     84     1  180.0000771  11.2968000  2
     53     82     83    119     1  180.0000771  11.2968000  2
     50     53     55     58     1  180.0000771  3.3472000  1
     50     53     55     58     1  120.0000514  0.8368000  2
     50     53     55     58     1  60.0000257  1.6736000  3
     50     53     82     83     1  0.0000000  -0.4184000  1
     50     53     82     83     1  240.0001029  -1.2552000  2
     50     53     82     83     1  300.0001286  -0.8368000  3
     49     50     53     55     1  0.0000000  0.0000000  1
     49     50     53     55     1  0.0000000  0.0000000  2
     49     50     53     55     1  0.0000000  0.0000000  3
     49     50     53     55     1  0.0000000  0.0000000  4
     49     50     53     55     1  0.0000000  0.0000000  5
     49     50     53     82     1  180.0000771  -0.4184000  1
     49     50     53     82     1  0.0000000  1.2552000  2
     49     50     53     82     1  0.0000000  4.1840000  3
     48     47     49     50     1  180.0000771  5.8576000  1
     48     47     49     50     1  180.0000771  11.2968000  2
     47     49     50     53     1  0.0000000  -0.4184000  1
     47     49     50     53     1  240.0001029  -1.2552000  2
     47     49     50     53     1  300.0001286  -0.8368000  3
    122    125    128    131     1  0.0000000  0.4184000  1
    122    125    128    131     1  0.0000000  0.4184000  2
    122    125    128    131     1  0.0000000  1.2552000  3
    122    125    128    131     1  0.0000000  0.4184000  4
    122    125    128    131     1  0.0000000  0.4184000  5
    111    113    116    119     1  0.0000000  0.0000000  1
    111    113    116    119     1  0.0000000  0.0000000  2
    111    113    116    119     1  0.0000000  2.0920000  3
    111    113    116    119     1  0.0000000  0.0000000  4
    111    113    116    119     1  0.0000000  0.4184000  5
    109    111    113    116     1  0.0000000  2.5104000  1
    109    111    113    116     1  180.0000771  1.6736000  2
    109    111    113    116     1  180.0000771  1.6736000  3
    109    111    113    116     1  180.0000771  0.8368000  4
    109    111    113    116     1  180.0000771  0.8368000  5
    106    109    111    113     1  180.0000771  7.1128000  1
    106    109    111    113     1  180.0000771  13.8072000  2
    106    109    111    113     1  0.0000000  2.5104000  3
    106    109    111    113     1  0.0000000  0.0000000  4
    106    109    111    113     1  0.0000000  0.0000000  5
    104    106    109    111     1  0.0000000  0.0000000  1
    104    106    109    111     1  0.0000000  0.0000000  2
    104    106    109    111     1  0.0000000  0.0000000  3
    104    106    109    111     1  0.0000000  0.0000000  4
    104    106    109    111     1  0.0000000  0.0000000  5
    102    104    106    109     1  0.0000000  0.0000000  1
    102    104    106    109     1  0.0000000  0.0000000  2
    102    104    106    109     1  0.0000000  0.0000000  3
    102    104    106    109     1  0.0000000  0.0000000  4
    102    104    106    109     1  0.0000000  0.0000000  5
     99    102    104    106     1  180.0000771  7.1128000  1
     99    102    104    106     1  180.0000771  13.8072000  2
     99    102    104    106     1  0.0000000  2.5104000  3
     99    102    104    106     1  0.0000000  0.0000000  4
     99    102    104    106     1  0.0000000  0.0000000  5
     97     99    102    104     1  0.0000000  0.0000000  1
     97     99    102    104     1  0.0000000  0.0000000  2
     97     99    102    104     1  0.0000000  0.0000000  3
     97     99    102    104     1  0.0000000  0.0000000  4
     97     99    102    104     1  0.0000000  0.0000000  5
     95     97     99    102     1  0.0000000  0.0000000  1
     95     97     99    102     1  0.0000000  0.0000000  2
     95     97     99    102     1  0.0000000  0.0000000  3
     95     97     99    102     1  0.0000000  0.0000000  4
     95     97     99    102     1  0.0000000  0.0000000  5
     92     95     97     99     1  180.0000771  7.1128000  1
     92     95     97     99     1  180.0000771  13.8072000  2
     92     95     97     99     1  0.0000000  2.5104000  3
     92     95     97     99     1  0.0000000  0.0000000  4
     92     95     97     99     1  0.0000000  0.0000000  5
     90     88     85    122     1  0.0000000  2.5104000  1
     90     88     85    122     1  180.0000771  1.6736000  2
     90     88     85    122     1  180.0000771  1.6736000  3
     90     88     85    122     1  180.0000771  0.8368000  4
     90     88     85    122     1  180.0000771  0.8368000  5
     90     92     95     97     1  0.0000000  0.0000000  1
     90     92     95     97     1  0.0000000  0.0000000  2
     90     92     95     97     1  0.0000000  0.0000000  3
     90     92     95     97     1  0.0000000  0.0000000  4
     90     92     95     97     1  0.0000000  0.0000000  5
     88     85    122    125     1  0.0000000  0.0000000  1
     88     85    122    125     1  0.0000000  0.0000000  2
     88     85    122    125     1  0.0000000  2.0920000  3
     88     85    122    125     1  0.0000000  0.0000000  4
     88     85    122    125     1  0.0000000  0.4184000  5
     88     90     92     95     1  0.0000000  0.0000000  1
     88     90     92     95     1  0.0000000  0.0000000  2
     88     90     92     95     1  0.0000000  0.0000000  3
     88     90     92     95     1  0.0000000  0.0000000  4
     88     90     92     95     1  0.0000000  0.0000000  5
     85     88     90     92     1  180.0000771  7.1128000  1
     85     88     90     92     1  180.0000771  13.8072000  2
     85     88     90     92     1  0.0000000  2.5104000  3
     85     88     90     92     1  0.0000000  0.0000000  4
     85     88     90     92     1  0.0000000  0.0000000  5
     85    122    125    128     1  0.0000000  0.4184000  1
     85    122    125    128     1  0.0000000  0.4184000  2
     85    122    125    128     1  0.0000000  1.2552000  3
     85    122    125    128     1  0.0000000  0.4184000  4
     85    122    125    128     1  0.0000000  0.4184000  5
    119     84     83     82     4  180.0000771  43.9320000  2
     44     48     47     49     4  180.0000771  43.9320000  2
     46     44     47     48     1  0.0000000  3.3472000  1
     46     44     47     48     1  180.0000771  0.3347200  3
     46     44     47     49     1  180.0000771  0.0000000  2
     45     44     47     48     1  0.0000000  3.3472000  1
     45     44     47     48     1  180.0000771  0.3347200  3
     45     44     47     49     1  180.0000771  0.0000000  2
     43     41     44     45     1  0.0000000  0.6276000  3
     43     41     44     46     1  0.0000000  0.6276000  3
     43     41     44     47     1  0.0000000  0.6527040  3
     42     41     44     45     1  0.0000000  0.6276000  3
     42     41     44     46     1  0.0000000  0.6276000  3
     42     41     44     47     1  0.0000000  0.6527040  3
     40     38     41     42     1  0.0000000  0.6276000  3
     40     38     41     43     1  0.0000000  0.6276000  3
     40     38     41     44     1  0.0000000  0.6694400  3
     39     38     41     42     1  0.0000000  0.6276000  3
     39     38     41     43     1  0.0000000  0.6276000  3
     39     38     41     44     1  0.0000000  0.6694400  3
     38     41     44     45     1  0.0000000  0.6694400  3
     38     41     44     46     1  0.0000000  0.6694400  3
     37     35     38     39     1  0.0000000  0.6276000  3
     37     35     38     40     1  0.0000000  0.6276000  3
     37     35     38     41     1  0.0000000  0.6694400  3
     36     35     38     39     1  0.0000000  0.6276000  3
     36     35     38     40     1  0.0000000  0.6276000  3
     36     35     38     41     1  0.0000000  0.6694400  3
     35     38     41     42     1  0.0000000  0.6694400  3
     35     38     41     43     1  0.0000000  0.6694400  3
     34     32     35     36     1  0.0000000  0.6276000  3
     34     32     35     37     1  0.0000000  0.6276000  3
     34     32     35     38     1  0.0000000  0.6694400  3
     33     32     35     36     1  0.0000000  0.6276000  3
     33     32     35     37     1  0.0000000  0.6276000  3
     33     32     35     38     1  0.0000000  0.6694400  3
     32     35     38     39     1  0.0000000  0.6694400  3
     32     35     38     40     1  0.0000000  0.6694400  3
     31     29     32     33     1  0.0000000  0.6276000  3
     31     29     32     34     1  0.0000000  0.6276000  3
     31     29     32     35     1  0.0000000  0.6694400  3
     30     29     32     33     1  0.0000000  0.6276000  3
     30     29     32     34     1  0.0000000  0.6276000  3
     30     29     32     35     1  0.0000000  0.6694400  3
     29     32     35     36     1  0.0000000  0.6694400  3
     29     32     35     37     1  0.0000000  0.6694400  3
     28     26     29     30     1  0.0000000  0.6276000  3
     28     26     29     31     1  0.0000000  0.6276000  3
     28     26     29     32     1  0.0000000  0.6694400  3
     27     26     29     30     1  0.0000000  0.6276000  3
     27     26     29     31     1  0.0000000  0.6276000  3
     27     26     29     32     1  0.0000000  0.6694400  3
     26     29     32     33     1  0.0000000  0.6694400  3
     26     29     32     34     1  0.0000000  0.6694400  3
     25     23     26     27     1  0.0000000  0.6276000  3
     25     23     26     28     1  0.0000000  0.6276000  3
     25     23     26     29     1  0.0000000  0.6694400  3
     24     23     26     27     1  0.0000000  0.6276000  3
     24     23     26     28     1  0.0000000  0.6276000  3
     24     23     26     29     1  0.0000000  0.6694400  3
     23     26     29     30     1  0.0000000  0.6694400  3
     23     26     29     31     1  0.0000000  0.6694400  3
     22     20     23     24     1  0.0000000  0.6276000  3
     22     20     23     25     1  0.0000000  0.6276000  3
     22     20     23     26     1  0.0000000  0.6694400  3
     21     20     23     24     1  0.0000000  0.6276000  3
     21     20     23     25     1  0.0000000  0.6276000  3
     21     20     23     26     1  0.0000000  0.6694400  3
     20     23     26     27     1  0.0000000  0.6694400  3
     20     23     26     28     1  0.0000000  0.6694400  3
     19     17     20     21     1  0.0000000  0.6276000  3
     19     17     20     22     1  0.0000000  0.6276000  3
     19     17     20     23     1  0.0000000  0.6694400  3
     18     17     20     21     1  0.0000000  0.6276000  3
     18     17     20     22     1  0.0000000  0.6276000  3
     18     17     20     23     1  0.0000000  0.6694400  3
     17     20     23     24     1  0.0000000  0.6694400  3
     17     20     23     25     1  0.0000000  0.6694400  3
     16     14     17     18     1  0.0000000  0.6276000  3
     16     14     17     19     1  0.0000000  0.6276000  3
     16     14     17     20     1  0.0000000  0.6694400  3
     15     14     17     18     1  0.0000000  0.6276000  3
     15     14     17     19     1  0.0000000  0.6276000  3
     15     14     17     20     1  0.0000000  0.6694400  3
     14     17     20     21     1  0.0000000  0.6694400  3
     14     17     20     22     1  0.0000000  0.6694400  3
     13     11     14     15     1  0.0000000  0.6276000  3
     13     11     14     16     1  0.0000000  0.6276000  3
     13     11     14     17     1  0.0000000  0.6694400  3
     12     11     14     15     1  0.0000000  0.6276000  3
     12     11     14     16     1  0.0000000  0.6276000  3
     12     11     14     17     1  0.0000000  0.6694400  3
     11     14     17     18     1  0.0000000  0.6694400  3
     11     14     17     19     1  0.0000000  0.6694400  3
     10      8     11     12     1  0.0000000  0.6276000  3
     10      8     11     13     1  0.0000000  0.6276000  3
     10      8     11     14     1  0.0000000  0.6694400  3
      9      8     11     12     1  0.0000000  0.6276000  3
      9      8     11     13     1  0.0000000  0.6276000  3
      9      8     11     14     1  0.0000000  0.6694400  3
      8     11     14     15     1  0.0000000  0.6694400  3
      8     11     14     16     1  0.0000000  0.6694400  3
      7      5      8      9     1  0.0000000  0.6276000  3
      7      5      8     10     1  0.0000000  0.6276000  3
      7      5      8     11     1  0.0000000  0.6694400  3
      6      5      8      9     1  0.0000000  0.6276000  3
      6      5      8     10     1  0.0000000  0.6276000  3
      6      5      8     11     1  0.0000000  0.6694400  3
      5      8     11     12     1  0.0000000  0.6694400  3
      5      8     11     13     1  0.0000000  0.6694400  3
      4      1      5      6     1  0.0000000  0.6276000  3
      4      1      5      7     1  0.0000000  0.6276000  3
      4      1      5      8     1  0.0000000  0.6694400  3
      3      1      5      6     1  0.0000000  0.6276000  3
      3      1      5      7     1  0.0000000  0.6276000  3
      3      1      5      8     1  0.0000000  0.6694400  3
      2      1      5      6     1  0.0000000  0.6276000  3
      2      1      5      7     1  0.0000000  0.6276000  3
      2      1      5      8     1  0.0000000  0.6694400  3
      1      5      8      9     1  0.0000000  0.6694400  3
      1      5      8     10     1  0.0000000  0.6694400  3
     84     83    119    120     1  0.0000000  3.3472000  1
     84     83    119    120     1  180.0000771  0.3347200  3
     84     83    119    121     1  0.0000000  3.3472000  1
     84     83    119    121     1  180.0000771  0.3347200  3
     83    119    116    117     1  0.0000000  0.6527040  3
     83    119    116    118     1  0.0000000  0.6527040  3
     82     83    119    120     1  180.0000771  0.0000000  2
     82     83    119    121     1  180.0000771  0.0000000  2
     75     72     67     76     1  0.0000000  0.6527040  3
     74     72     67     76     1  0.0000000  0.6527040  3
     73     72     67     76     1  0.0000000  0.6527040  3
     72     67     76     77     1  0.0000000  0.6527040  3
     72     67     76     78     1  0.0000000  0.6527040  3
     72     67     76     79     1  0.0000000  0.6527040  3
     71     68     67     72     1  0.0000000  0.6527040  3
     71     68     67     76     1  0.0000000  0.6527040  3
     70     68     67     72     1  0.0000000  0.6527040  3
     70     68     67     76     1  0.0000000  0.6527040  3
     69     68     67     72     1  0.0000000  0.6527040  3
     69     68     67     76     1  0.0000000  0.6527040  3
     68     67     72     73     1  0.0000000  0.6527040  3
     68     67     72     74     1  0.0000000  0.6527040  3
     68     67     72     75     1  0.0000000  0.6527040  3
     68     67     76     77     1  0.0000000  0.6527040  3
     68     67     76     78     1  0.0000000  0.6527040  3
     68     67     76     79     1  0.0000000  0.6527040  3
     66     64     67     68     1  0.0000000  0.6527040  3
     66     64     67     72     1  0.0000000  0.6527040  3
     66     64     67     76     1  0.0000000  0.6527040  3
     65     64     67     68     1  0.0000000  0.6527040  3
     65     64     67     72     1  0.0000000  0.6527040  3
     65     64     67     76     1  0.0000000  0.6527040  3
     64     67     68     69     1  0.0000000  0.6527040  3
     64     67     68     70     1  0.0000000  0.6527040  3
     64     67     68     71     1  0.0000000  0.6527040  3
     64     67     72     73     1  0.0000000  0.6527040  3
     64     67     72     74     1  0.0000000  0.6527040  3
     64     67     72     75     1  0.0000000  0.6527040  3
     64     67     76     77     1  0.0000000  0.6527040  3
     64     67     76     78     1  0.0000000  0.6527040  3
     64     67     76     79     1  0.0000000  0.6527040  3
     63     61     64     65     1  0.0000000  0.6527040  3
     63     61     64     66     1  0.0000000  0.6527040  3
     63     61     64     67     1  0.0000000  0.6527040  3
     62     61     64     65     1  0.0000000  0.6527040  3
     62     61     64     66     1  0.0000000  0.6527040  3
     62     61     64     67     1  0.0000000  0.6527040  3
     60     61     64     65     1  0.0000000  0.6527040  3
     60     61     64     66     1  0.0000000  0.6527040  3
     59     60     61     62     1  0.0000000  0.0000000  1
     59     60     61     62     1  0.0000000  0.0000000  2
     59     60     61     62     1  0.0000000  1.6024720  3
     59     60     61     62     1  0.0000000  0.0000000  4
     59     60     61     62     1  0.0000000  0.0000000  5
     59     60     61     63     1  0.0000000  0.0000000  1
     59     60     61     63     1  0.0000000  0.0000000  2
     59     60     61     63     1  0.0000000  1.6024720  3
     59     60     61     63     1  0.0000000  0.0000000  4
     59     60     61     63     1  0.0000000  0.0000000  5
     57     55     53     82     1  0.0000000  1.0460000  1
     57     55     53     82     1  0.0000000  0.0000000  3
     57     55     58     59     1  0.0000000  0.0000000  1
     57     55     58     59     1  0.0000000  0.0000000  2
     57     55     58     59     1  0.0000000  1.6024720  3
     57     55     58     59     1  0.0000000  0.0000000  4
     57     55     58     59     1  0.0000000  0.0000000  5
     56     55     53     82     1  0.0000000  1.0460000  1
     56     55     53     82     1  0.0000000  0.0000000  3
     56     55     58     59     1  0.0000000  0.0000000  1
     56     55     58     59     1  0.0000000  0.0000000  2
     56     55     58     59     1  0.0000000  1.6024720  3
     56     55     58     59     1  0.0000000  0.0000000  4
     56     55     58     59     1  0.0000000  0.0000000  5
     54     53     55     56     1  0.0000000  0.6527040  3
     54     53     55     57     1  0.0000000  0.6527040  3
     54     53     55     58     1  0.0000000  1.0460000  1
     54     53     55     58     1  0.0000000  0.0000000  3
     54     53     82     83     1  0.0000000  1.6024720  3
     52     50     53     54     1  0.0000000  0.6527040  3
     52     50     53     55     1  0.0000000  0.6527040  3
     52     50     53     82     1  0.0000000  1.0460000  1
     52     50     53     82     1  0.0000000  0.0000000  3
     51     50     53     54     1  0.0000000  0.6527040  3
     51     50     53     55     1  0.0000000  0.6527040  3
     51     50     53     82     1  0.0000000  1.0460000  1
     51     50     53     82     1  0.0000000  0.0000000  3
     50     53     55     56     1  0.0000000  0.6527040  3
     50     53     55     57     1  0.0000000  0.6527040  3
     49     50     53     54     1  0.0000000  1.0460000  1
     49     50     53     54     1  0.0000000  0.0000000  3
     47     49     50     51     1  0.0000000  1.6024720  3
     47     49     50     52     1  0.0000000  1.6024720  3
    130    128    131    132     1  0.0000000  0.6276000  3
    130    128    131    133     1  0.0000000  0.6276000  3
    130    128    131    134     1  0.0000000  0.6276000  3
    129    128    131    132     1  0.0000000  0.6276000  3
    129    128    131    133     1  0.0000000  0.6276000  3
    129    128    131    134     1  0.0000000  0.6276000  3
    127    125    128    129     1  0.0000000  0.6276000  3
    127    125    128    130     1  0.0000000  0.6276000  3
    127    125    128    131     1  0.0000000  0.6694400  3
    126    125    128    129     1  0.0000000  0.6276000  3
    126    125    128    130     1  0.0000000  0.6276000  3
    126    125    128    131     1  0.0000000  0.6694400  3
    125    128    131    132     1  0.0000000  0.6694400  3
    125    128    131    133     1  0.0000000  0.6694400  3
    125    128    131    134     1  0.0000000  0.6694400  3
    124    122    125    126     1  0.0000000  0.6276000  3
    124    122    125    127     1  0.0000000  0.6276000  3
    124    122    125    128     1  0.0000000  0.6694400  3
    123    122    125    126     1  0.0000000  0.6276000  3
    123    122    125    127     1  0.0000000  0.6276000  3
    123    122    125    128     1  0.0000000  0.6694400  3
    122    125    128    129     1  0.0000000  0.6694400  3
    122    125    128    130     1  0.0000000  0.6694400  3
    118    116    119    120     1  0.0000000  0.6276000  3
    118    116    119    121     1  0.0000000  0.6276000  3
    117    116    119    120     1  0.0000000  0.6276000  3
    117    116    119    121     1  0.0000000  0.6276000  3
    115    113    116    117     1  0.0000000  0.6276000  3
    115    113    116    118     1  0.0000000  0.6276000  3
    115    113    116    119     1  0.0000000  0.6694400  3
    114    113    116    117     1  0.0000000  0.6276000  3
    114    113    116    118     1  0.0000000  0.6276000  3
    114    113    116    119     1  0.0000000  0.6694400  3
    113    116    119    120     1  0.0000000  0.6694400  3
    113    116    119    121     1  0.0000000  0.6694400  3
    112    111    113    114     1  0.0000000  0.0000000  2
    112    111    113    115     1  0.0000000  0.0000000  2
    112    111    113    116     1  0.0000000  0.0000000  2
    111    113    116    117     1  0.0000000  0.6510304  3
    111    113    116    118     1  0.0000000  0.6510304  3
    110    109    111    112     1  180.0000771  27.8236000  2
    110    109    111    113     1  180.0000771  27.8236000  2
    109    111    113    114     1  0.0000000  4.8116000  1
    109    111    113    114     1  180.0000771  1.5899200  3
    109    111    113    115     1  0.0000000  4.8116000  1
    109    111    113    115     1  180.0000771  1.5899200  3
    108    106    109    110     1  0.0000000  0.0000000  2
    108    106    109    111     1  0.0000000  4.8116000  1
    108    106    109    111     1  180.0000771  1.5899200  3
    107    106    109    110     1  0.0000000  0.0000000  2
    107    106    109    111     1  0.0000000  4.8116000  1
    107    106    109    111     1  180.0000771  1.5899200  3
    106    109    111    112     1  180.0000771  27.8236000  2
    105    104    106    107     1  0.0000000  0.0000000  2
    105    104    106    108     1  0.0000000  0.0000000  2
    105    104    106    109     1  0.0000000  0.0000000  2
    104    106    109    110     1  0.0000000  0.0000000  2
    103    102    104    105     1  180.0000771  27.8236000  2
    103    102    104    106     1  180.0000771  27.8236000  2
    102    104    106    107     1  0.0000000  4.8116000  1
    102    104    106    107     1  180.0000771  1.5899200  3
    102    104    106    108     1  0.0000000  4.8116000  1
    102    104    106    108     1  180.0000771  1.5899200  3
    101     99    102    103     1  0.0000000  0.0000000  2
    101     99    102    104     1  0.0000000  4.8116000  1
    101     99    102    104     1  180.0000771  1.5899200  3
    100     99    102    103     1  0.0000000  0.0000000  2
    100     99    102    104     1  0.0000000  4.8116000  1
    100     99    102    104     1  180.0000771  1.5899200  3
     99    102    104    105     1  180.0000771  27.8236000  2
     98     97     99    100     1  0.0000000  0.0000000  2
     98     97     99    101     1  0.0000000  0.0000000  2
     98     97     99    102     1  0.0000000  0.0000000  2
     97     99    102    103     1  0.0000000  0.0000000  2
     96     95     97     98     1  180.0000771  27.8236000  2
     96     95     97     99     1  180.0000771  27.8236000  2
     95     97     99    100     1  0.0000000  4.8116000  1
     95     97     99    100     1  180.0000771  1.5899200  3
     95     97     99    101     1  0.0000000  4.8116000  1
     95     97     99    101     1  180.0000771  1.5899200  3
     94     92     95     96     1  0.0000000  0.0000000  2
     94     92     95     97     1  0.0000000  4.8116000  1
     94     92     95     97     1  180.0000771  1.5899200  3
     93     92     95     96     1  0.0000000  0.0000000  2
     93     92     95     97     1  0.0000000  4.8116000  1
     93     92     95     97     1  180.0000771  1.5899200  3
     92     95     97     98     1  180.0000771  27.8236000  2
     91     90     92     93     1  0.0000000  0.0000000  2
     91     90     92     94     1  0.0000000  0.0000000  2
     91     90     92     95     1  0.0000000  0.0000000  2
     90     92     95     96     1  0.0000000  0.0000000  2
     89     88     85    122     1  0.0000000  0.0000000  2
     89     88     90     91     1  180.0000771  27.8236000  2
     89     88     90     92     1  180.0000771  27.8236000  2
     88     85    122    123     1  0.0000000  0.6510304  3
     88     85    122    124     1  0.0000000  0.6510304  3
     88     90     92     93     1  0.0000000  4.8116000  1
     88     90     92     93     1  180.0000771  1.5899200  3
     88     90     92     94     1  0.0000000  4.8116000  1
     88     90     92     94     1  180.0000771  1.5899200  3
     87     85     88     89     1  0.0000000  0.0000000  2
     87     85     88     90     1  0.0000000  4.8116000  1
     87     85     88     90     1  180.0000771  1.5899200  3
     87     85    122    123     1  0.0000000  0.6276000  3
     87     85    122    124     1  0.0000000  0.6276000  3
     87     85    122    125     1  0.0000000  0.6694400  3
     86     85     88     89     1  0.0000000  0.0000000  2
     86     85     88     90     1  0.0000000  4.8116000  1
     86     85     88     90     1  180.0000771  1.5899200  3
     86     85    122    123     1  0.0000000  0.6276000  3
     86     85    122    124     1  0.0000000  0.6276000  3
     86     85    122    125     1  0.0000000  0.6694400  3
     85     88     90     91     1  180.0000771  27.8236000  2
     85    122    125    126     1  0.0000000  0.6694400  3
     85    122    125    127     1  0.0000000  0.6694400  3
    109    113    111    112     4  180.0000771  4.6024000  2
    111    106    109    110     4  180.0000771  4.6024000  2
    102    106    104    105     4  180.0000771  4.6024000  2
    104     99    102    103     4  180.0000771  4.6024000  2
     95     99     97     98     4  180.0000771  4.6024000  2
     97     92     95     96     4  180.0000771  4.6024000  2
     88     92     90     91     4  180.0000771  4.6024000  2
     90     85     88     89     4  180.0000771  4.6024000  2
