; Exact Amber Lipid21 v1.0 topology converted by ParmEd
; Explicit [pairs] preserve Lipid21-specific 1-4 scaling.
; Conversion contract: amber-explicit-pairs-v2 (independent of parent defaults).

[ moleculetype ]
; Name nrexcl
POPA 3

[ atoms ]
; nr type resnr residue atom cgnr charge mass
1 L21_cD 1 POPA C16X 1 -0.12544700 12.010000
2 L21_hL 1 POPA H16X 2 0.02904700 1.008000
3 L21_hL 1 POPA H16Y 3 0.02904700 1.008000
4 L21_hL 1 POPA H16Z 4 0.02904700 1.008000
5 L21_cD 1 POPA C15X 5 0.01397500 12.010000
6 L21_hL 1 POPA H15X 6 0.00929200 1.008000
7 L21_hL 1 POPA H15Y 7 0.00929200 1.008000
8 L21_cD 1 POPA C14X 8 -0.02008600 12.010000
9 L21_hL 1 POPA H14X 9 0.01592900 1.008000
10 L21_hL 1 POPA H14Y 10 0.01592900 1.008000
11 L21_cD 1 POPA C13X 11 -0.03309600 12.010000
12 L21_hL 1 POPA H13X 12 0.01462100 1.008000
13 L21_hL 1 POPA H13Y 13 0.01462100 1.008000
14 L21_cD 1 POPA C12X 14 -0.02763300 12.010000
15 L21_hL 1 POPA H12X 15 0.01136800 1.008000
16 L21_hL 1 POPA H12Y 16 0.01136800 1.008000
17 L21_cD 1 POPA C11X 17 -0.02520600 12.010000
18 L21_hL 1 POPA H11X 18 0.01433400 1.008000
19 L21_hL 1 POPA H11Y 19 0.01433400 1.008000
20 L21_cD 1 POPA C10X 20 -0.02883100 12.010000
21 L21_hL 1 POPA H10X 21 0.01469100 1.008000
22 L21_hL 1 POPA H10Y 22 0.01469100 1.008000
23 L21_cD 1 POPA C9X 23 -0.03047200 12.010000
24 L21_hL 1 POPA H9X 24 0.01389700 1.008000
25 L21_hL 1 POPA H9Y 25 0.01389700 1.008000
26 L21_cD 1 POPA C8X 26 -0.01579300 12.010000
27 L21_hL 1 POPA H8X 27 0.00906700 1.008000
28 L21_hL 1 POPA H8Y 28 0.00906700 1.008000
29 L21_cD 1 POPA C7X 29 -0.01963000 12.010000
30 L21_hL 1 POPA H7X 30 0.01104100 1.008000
31 L21_hL 1 POPA H7Y 31 0.01104100 1.008000
32 L21_cD 1 POPA C6X 32 -0.02442700 12.010000
33 L21_hL 1 POPA H6X 33 0.01333400 1.008000
34 L21_hL 1 POPA H6Y 34 0.01333400 1.008000
35 L21_cD 1 POPA C5X 35 -0.02938700 12.010000
36 L21_hL 1 POPA H5X 36 0.01676300 1.008000
37 L21_hL 1 POPA H5Y 37 0.01676300 1.008000
38 L21_cD 1 POPA C4X 38 -0.03009900 12.010000
39 L21_hL 1 POPA H4X 39 0.02087700 1.008000
40 L21_hL 1 POPA H4Y 40 0.02087700 1.008000
41 L21_cD 1 POPA C3X 41 -0.00488200 12.010000
42 L21_hL 1 POPA H3X 42 0.01900700 1.008000
43 L21_hL 1 POPA H3Y 43 0.01900700 1.008000
44 L21_cD 1 POPA C2X 44 -0.14925900 12.010000
45 L21_hL 1 POPA H2X 45 0.04734500 1.008000
46 L21_hL 1 POPA H2Y 46 0.04734500 1.008000
47 L21_cC 1 POPA C11 47 0.88820700 12.010000
48 L21_oC 1 POPA O12 48 -0.67114200 16.000000
49 L21_oS 1 POPA O11 49 -0.54782400 16.000000
50 L21_cA 1 POPA C1 50 0.18529900 12.010000
51 L21_hE 1 POPA HR 51 0.06767600 1.008000
52 L21_hE 1 POPA HS 52 0.06767600 1.008000
53 L21_cA 1 POPA C2 53 0.28354600 12.010000
54 L21_hE 1 POPA HX 54 0.06386200 1.008000
55 L21_cA 1 POPA C3 55 0.08152800 12.010000
56 L21_hE 1 POPA HA 56 0.08309900 1.008000
57 L21_hE 1 POPA HB 57 0.08309900 1.008000
58 L21_oT 1 POPA O31 58 -0.59419700 16.000000
59 L21_pA 1 POPA P31 59 1.45666300 30.970000
60 L21_oH 1 POPA O32 60 -0.70619700 16.000000
61 L21_hO 1 POPA HO2A 61 0.41562800 1.008000
62 L21_oP 1 POPA O33 62 -0.91415800 16.000000
63 L21_oP 1 POPA O34 63 -0.91415800 16.000000
64 L21_oS 1 POPA O21 64 -0.55448700 16.000000
65 L21_cC 1 POPA C21 65 0.89750200 12.010000
66 L21_oC 1 POPA O22 66 -0.67162200 16.000000
67 L21_cD 1 POPA C2Y 67 -0.14341800 12.010000
68 L21_hL 1 POPA H2U 68 0.04286100 1.008000
69 L21_hL 1 POPA H2V 69 0.04286100 1.008000
70 L21_cD 1 POPA C3Y 70 0.00161900 12.010000
71 L21_hL 1 POPA H3U 71 0.01952900 1.008000
72 L21_hL 1 POPA H3V 72 0.01952900 1.008000
73 L21_cD 1 POPA C4Y 73 -0.02296000 12.010000
74 L21_hL 1 POPA H4U 74 0.01813400 1.008000
75 L21_hL 1 POPA H4V 75 0.01813400 1.008000
76 L21_cD 1 POPA C5Y 76 -0.01669200 12.010000
77 L21_hL 1 POPA H5U 77 0.00869000 1.008000
78 L21_hL 1 POPA H5V 78 0.00869000 1.008000
79 L21_cD 1 POPA C6Y 79 -0.02378900 12.010000
80 L21_hL 1 POPA H6U 80 0.00926600 1.008000
81 L21_hL 1 POPA H6V 81 0.00926600 1.008000
82 L21_cD 1 POPA C7Y 82 -0.01749500 12.010000
83 L21_hL 1 POPA H7U 83 0.01959800 1.008000
84 L21_hL 1 POPA H7V 84 0.01959800 1.008000
85 L21_cD 1 POPA C8Y 85 0.03177500 12.010000
86 L21_hL 1 POPA H8U 86 0.03268500 1.008000
87 L21_hL 1 POPA H8V 87 0.03268500 1.008000
88 L21_cB 1 POPA C9Y 88 -0.24422800 12.010000
89 L21_hB 1 POPA H9U 89 0.13151200 1.008000
90 L21_cB 1 POPA C10Y 90 -0.23928400 12.010000
91 L21_hB 1 POPA H10U 91 0.12687800 1.008000
92 L21_cD 1 POPA C11Y 92 0.02905900 12.010000
93 L21_hL 1 POPA H11U 93 0.03353100 1.008000
94 L21_hL 1 POPA H11V 94 0.03353100 1.008000
95 L21_cD 1 POPA C12Y 95 -0.02635300 12.010000
96 L21_hL 1 POPA H12U 96 0.01971700 1.008000
97 L21_hL 1 POPA H12V 97 0.01971700 1.008000
98 L21_cD 1 POPA C13Y 98 -0.01825700 12.010000
99 L21_hL 1 POPA H13U 99 0.01380000 1.008000
100 L21_hL 1 POPA H13V 100 0.01380000 1.008000
101 L21_cD 1 POPA C14Y 101 -0.02484900 12.010000
102 L21_hL 1 POPA H14U 102 0.00857200 1.008000
103 L21_hL 1 POPA H14V 103 0.00857200 1.008000
104 L21_cD 1 POPA C15Y 104 -0.02324700 12.010000
105 L21_hL 1 POPA H15U 105 0.01040300 1.008000
106 L21_hL 1 POPA H15V 106 0.01040300 1.008000
107 L21_cD 1 POPA C16Y 107 -0.01248800 12.010000
108 L21_hL 1 POPA H16U 108 0.01365900 1.008000
109 L21_hL 1 POPA H16V 109 0.01365900 1.008000
110 L21_cD 1 POPA C17Y 110 0.00868400 12.010000
111 L21_hL 1 POPA H17U 111 0.01002600 1.008000
112 L21_hL 1 POPA H17V 112 0.01002600 1.008000
113 L21_cD 1 POPA C18Y 113 -0.11729000 12.010000
114 L21_hL 1 POPA H18U 114 0.02662700 1.008000
115 L21_hL 1 POPA H18V 115 0.02662700 1.008000
116 L21_hL 1 POPA H18W 116 0.02662700 1.008000

[ bonds ]
;    ai     aj funct         c0         c1         c2         c3
     44     47     1   0.15080 274721.440000
     41     44     1   0.15350 253634.080000
     38     41     1   0.15350 253634.080000
     35     38     1   0.15350 253634.080000
     32     35     1   0.15350 253634.080000
     29     32     1   0.15350 253634.080000
     26     29     1   0.15350 253634.080000
     23     26     1   0.15350 253634.080000
     20     23     1   0.15350 253634.080000
     17     20     1   0.15350 253634.080000
     14     17     1   0.15350 253634.080000
     11     14     1   0.15350 253634.080000
      8     11     1   0.15350 253634.080000
      5      8     1   0.15350 253634.080000
      1      5     1   0.15350 253634.080000
     65     66     1   0.12140 542246.400000
     65     67     1   0.15080 274721.440000
     64     65     1   0.13430 344175.840000
     59     60     1   0.16250 268780.160000
     59     62     1   0.14800 439320.000000
     59     63     1   0.14800 439320.000000
     58     59     1   0.16100 192464.000000
     55     58     1   0.14390 252295.200000
     53     55     1   0.15350 253634.080000
     53     64     1   0.14390 252295.200000
     50     53     1   0.15350 253634.080000
     49     50     1   0.14390 252295.200000
     47     48     1   0.12140 542246.400000
     47     49     1   0.13430 344175.840000
    110    113     1   0.15350 253634.080000
    107    110     1   0.15350 253634.080000
    104    107     1   0.15350 253634.080000
    101    104     1   0.15350 253634.080000
     98    101     1   0.15350 253634.080000
     95     98     1   0.15350 253634.080000
     92     95     1   0.15350 253634.080000
     90     92     1   0.15080 274721.440000
     88     90     1   0.13240 493460.960000
     85     88     1   0.15080 274721.440000
     82     85     1   0.15350 253634.080000
     79     82     1   0.15350 253634.080000
     76     79     1   0.15350 253634.080000
     73     76     1   0.15350 253634.080000
     70     73     1   0.15350 253634.080000
     67     70     1   0.15350 253634.080000
     44     45     1   0.10920 282252.640000
     44     46     1   0.10920 282252.640000
     41     42     1   0.10920 282252.640000
     41     43     1   0.10920 282252.640000
     38     39     1   0.10920 282252.640000
     38     40     1   0.10920 282252.640000
     35     36     1   0.10920 282252.640000
     35     37     1   0.10920 282252.640000
     32     33     1   0.10920 282252.640000
     32     34     1   0.10920 282252.640000
     29     30     1   0.10920 282252.640000
     29     31     1   0.10920 282252.640000
     26     27     1   0.10920 282252.640000
     26     28     1   0.10920 282252.640000
     23     24     1   0.10920 282252.640000
     23     25     1   0.10920 282252.640000
     20     21     1   0.10920 282252.640000
     20     22     1   0.10920 282252.640000
     17     18     1   0.10920 282252.640000
     17     19     1   0.10920 282252.640000
     14     15     1   0.10920 282252.640000
     14     16     1   0.10920 282252.640000
     11     12     1   0.10920 282252.640000
     11     13     1   0.10920 282252.640000
      8      9     1   0.10920 282252.640000
      8     10     1   0.10920 282252.640000
      5      6     1   0.10920 282252.640000
      5      7     1   0.10920 282252.640000
      1      2     1   0.10920 282252.640000
      1      3     1   0.10920 282252.640000
      1      4     1   0.10920 282252.640000
     60     61     1   0.09740 309281.280000
     55     56     1   0.10930 281081.120000
     55     57     1   0.10930 281081.120000
     53     54     1   0.10930 281081.120000
     50     51     1   0.10930 281081.120000
     50     52     1   0.10930 281081.120000
    113    114     1   0.10920 282252.640000
    113    115     1   0.10920 282252.640000
    113    116     1   0.10920 282252.640000
    110    111     1   0.10920 282252.640000
    110    112     1   0.10920 282252.640000
    107    108     1   0.10920 282252.640000
    107    109     1   0.10920 282252.640000
    104    105     1   0.10920 282252.640000
    104    106     1   0.10920 282252.640000
    101    102     1   0.10920 282252.640000
    101    103     1   0.10920 282252.640000
     98     99     1   0.10920 282252.640000
     98    100     1   0.10920 282252.640000
     95     96     1   0.10920 282252.640000
     95     97     1   0.10920 282252.640000
     92     93     1   0.10920 282252.640000
     92     94     1   0.10920 282252.640000
     90     91     1   0.10870 288110.240000
     88     89     1   0.10870 288110.240000
     85     86     1   0.10920 282252.640000
     85     87     1   0.10920 282252.640000
     82     83     1   0.10920 282252.640000
     82     84     1   0.10920 282252.640000
     79     80     1   0.10920 282252.640000
     79     81     1   0.10920 282252.640000
     76     77     1   0.10920 282252.640000
     76     78     1   0.10920 282252.640000
     73     74     1   0.10920 282252.640000
     73     75     1   0.10920 282252.640000
     70     71     1   0.10920 282252.640000
     70     72     1   0.10920 282252.640000
     67     68     1   0.10920 282252.640000
     67     69     1   0.10920 282252.640000


[ pairs ]
; ai aj funct fudgeQQ qi qj sigma epsilon; source-specific LJ and charge scaling
1 9 2 0.83333333333333 -0.12544700010427 0.015929000016463 0.30005468824211 0.069194303392389
1 10 2 0.83333333333333 -0.12544700010427 0.015929000016463 0.30005468824211 0.069194303392389
1 11 2 0.83333333333333 -0.12544700010427 -0.033096000010976 0.33996695084507 0.076288266607901
2 6 2 0.83333333333333 0.029046999994512 0.0092920000219511 0.26014242576773 0.020919999936173
2 7 2 0.83333333333333 0.029046999994512 0.0092920000219511 0.26014242576773 0.020919999936173
2 8 2 0.83333333333333 0.029046999994512 -0.020086000010976 0.30005468824211 0.069194303392389
3 6 2 0.83333333333333 0.029046999994512 0.0092920000219511 0.26014242576773 0.020919999936173
3 7 2 0.83333333333333 0.029046999994512 0.0092920000219511 0.26014242576773 0.020919999936173
3 8 2 0.83333333333333 0.029046999994512 -0.020086000010976 0.30005468824211 0.069194303392389
4 6 2 0.83333333333333 0.029046999994512 0.0092920000219511 0.26014242576773 0.020919999936173
4 7 2 0.83333333333333 0.029046999994512 0.0092920000219511 0.26014242576773 0.020919999936173
4 8 2 0.83333333333333 0.029046999994512 -0.020086000010976 0.30005468824211 0.069194303392389
5 12 2 0.83333333333333 0.013974999972561 0.014620999983537 0.30005468824211 0.069194303392389
5 13 2 0.83333333333333 0.013974999972561 0.014620999983537 0.30005468824211 0.069194303392389
5 14 2 0.83333333333333 0.013974999972561 -0.027633000005488 0.33996695084507 0.076288266607901
6 9 2 0.83333333333333 0.0092920000219511 0.015929000016463 0.26014242576773 0.020919999936173
6 10 2 0.83333333333333 0.0092920000219511 0.015929000016463 0.26014242576773 0.020919999936173
6 11 2 0.83333333333333 0.0092920000219511 -0.033096000010976 0.30005468824211 0.069194303392389
7 9 2 0.83333333333333 0.0092920000219511 0.015929000016463 0.26014242576773 0.020919999936173
7 10 2 0.83333333333333 0.0092920000219511 0.015929000016463 0.26014242576773 0.020919999936173
7 11 2 0.83333333333333 0.0092920000219511 -0.033096000010976 0.30005468824211 0.069194303392389
8 15 2 0.83333333333333 -0.020086000010976 0.011367999978049 0.30005468824211 0.069194303392389
8 16 2 0.83333333333333 -0.020086000010976 0.011367999978049 0.30005468824211 0.069194303392389
8 17 2 0.83333333333333 -0.020086000010976 -0.025206000010976 0.33996695084507 0.076288266607901
9 12 2 0.83333333333333 0.015929000016463 0.014620999983537 0.26014242576773 0.020919999936173
9 13 2 0.83333333333333 0.015929000016463 0.014620999983537 0.26014242576773 0.020919999936173
9 14 2 0.83333333333333 0.015929000016463 -0.027633000005488 0.30005468824211 0.069194303392389
10 12 2 0.83333333333333 0.015929000016463 0.014620999983537 0.26014242576773 0.020919999936173
10 13 2 0.83333333333333 0.015929000016463 0.014620999983537 0.26014242576773 0.020919999936173
10 14 2 0.83333333333333 0.015929000016463 -0.027633000005488 0.30005468824211 0.069194303392389
11 18 2 0.83333333333333 -0.033096000010976 0.014333999989024 0.30005468824211 0.069194303392389
11 19 2 0.83333333333333 -0.033096000010976 0.014333999989024 0.30005468824211 0.069194303392389
11 20 2 0.83333333333333 -0.033096000010976 -0.028830999983537 0.33996695084507 0.076288266607901
12 15 2 0.83333333333333 0.014620999983537 0.011367999978049 0.26014242576773 0.020919999936173
12 16 2 0.83333333333333 0.014620999983537 0.011367999978049 0.26014242576773 0.020919999936173
12 17 2 0.83333333333333 0.014620999983537 -0.025206000010976 0.30005468824211 0.069194303392389
13 15 2 0.83333333333333 0.014620999983537 0.011367999978049 0.26014242576773 0.020919999936173
13 16 2 0.83333333333333 0.014620999983537 0.011367999978049 0.26014242576773 0.020919999936173
13 17 2 0.83333333333333 0.014620999983537 -0.025206000010976 0.30005468824211 0.069194303392389
14 21 2 0.83333333333333 -0.027633000005488 0.014690999983537 0.30005468824211 0.069194303392389
14 22 2 0.83333333333333 -0.027633000005488 0.014690999983537 0.30005468824211 0.069194303392389
14 23 2 0.83333333333333 -0.027633000005488 -0.030472000021951 0.33996695084507 0.076288266607901
15 18 2 0.83333333333333 0.011367999978049 0.014333999989024 0.26014242576773 0.020919999936173
15 19 2 0.83333333333333 0.011367999978049 0.014333999989024 0.26014242576773 0.020919999936173
15 20 2 0.83333333333333 0.011367999978049 -0.028830999983537 0.30005468824211 0.069194303392389
16 18 2 0.83333333333333 0.011367999978049 0.014333999989024 0.26014242576773 0.020919999936173
16 19 2 0.83333333333333 0.011367999978049 0.014333999989024 0.26014242576773 0.020919999936173
16 20 2 0.83333333333333 0.011367999978049 -0.028830999983537 0.30005468824211 0.069194303392389
17 24 2 0.83333333333333 -0.025206000010976 0.013896999994512 0.30005468824211 0.069194303392389
17 25 2 0.83333333333333 -0.025206000010976 0.013896999994512 0.30005468824211 0.069194303392389
17 26 2 0.83333333333333 -0.025206000010976 -0.015793000005488 0.33996695084507 0.076288266607901
18 21 2 0.83333333333333 0.014333999989024 0.014690999983537 0.26014242576773 0.020919999936173
18 22 2 0.83333333333333 0.014333999989024 0.014690999983537 0.26014242576773 0.020919999936173
18 23 2 0.83333333333333 0.014333999989024 -0.030472000021951 0.30005468824211 0.069194303392389
19 21 2 0.83333333333333 0.014333999989024 0.014690999983537 0.26014242576773 0.020919999936173
19 22 2 0.83333333333333 0.014333999989024 0.014690999983537 0.26014242576773 0.020919999936173
19 23 2 0.83333333333333 0.014333999989024 -0.030472000021951 0.30005468824211 0.069194303392389
20 27 2 0.83333333333333 -0.028830999983537 0.0090669999945122 0.30005468824211 0.069194303392389
20 28 2 0.83333333333333 -0.028830999983537 0.0090669999945122 0.30005468824211 0.069194303392389
20 29 2 0.83333333333333 -0.028830999983537 -0.01963 0.33996695084507 0.076288266607901
21 24 2 0.83333333333333 0.014690999983537 0.013896999994512 0.26014242576773 0.020919999936173
21 25 2 0.83333333333333 0.014690999983537 0.013896999994512 0.26014242576773 0.020919999936173
21 26 2 0.83333333333333 0.014690999983537 -0.015793000005488 0.30005468824211 0.069194303392389
22 24 2 0.83333333333333 0.014690999983537 0.013896999994512 0.26014242576773 0.020919999936173
22 25 2 0.83333333333333 0.014690999983537 0.013896999994512 0.26014242576773 0.020919999936173
22 26 2 0.83333333333333 0.014690999983537 -0.015793000005488 0.30005468824211 0.069194303392389
23 30 2 0.83333333333333 -0.030472000021951 0.011040999983537 0.30005468824211 0.069194303392389
23 31 2 0.83333333333333 -0.030472000021951 0.011040999983537 0.30005468824211 0.069194303392389
23 32 2 0.83333333333333 -0.030472000021951 -0.024426999994512 0.33996695084507 0.076288266607901
24 27 2 0.83333333333333 0.013896999994512 0.0090669999945122 0.26014242576773 0.020919999936173
24 28 2 0.83333333333333 0.013896999994512 0.0090669999945122 0.26014242576773 0.020919999936173
24 29 2 0.83333333333333 0.013896999994512 -0.01963 0.30005468824211 0.069194303392389
25 27 2 0.83333333333333 0.013896999994512 0.0090669999945122 0.26014242576773 0.020919999936173
25 28 2 0.83333333333333 0.013896999994512 0.0090669999945122 0.26014242576773 0.020919999936173
25 29 2 0.83333333333333 0.013896999994512 -0.01963 0.30005468824211 0.069194303392389
26 33 2 0.83333333333333 -0.015793000005488 0.013333999989024 0.30005468824211 0.069194303392389
26 34 2 0.83333333333333 -0.015793000005488 0.013333999989024 0.30005468824211 0.069194303392389
26 35 2 0.83333333333333 -0.015793000005488 -0.029386999994512 0.33996695084507 0.076288266607901
27 30 2 0.83333333333333 0.0090669999945122 0.011040999983537 0.26014242576773 0.020919999936173
27 31 2 0.83333333333333 0.0090669999945122 0.011040999983537 0.26014242576773 0.020919999936173
27 32 2 0.83333333333333 0.0090669999945122 -0.024426999994512 0.30005468824211 0.069194303392389
28 30 2 0.83333333333333 0.0090669999945122 0.011040999983537 0.26014242576773 0.020919999936173
28 31 2 0.83333333333333 0.0090669999945122 0.011040999983537 0.26014242576773 0.020919999936173
28 32 2 0.83333333333333 0.0090669999945122 -0.024426999994512 0.30005468824211 0.069194303392389
29 36 2 0.83333333333333 -0.01963 0.016763000005488 0.30005468824211 0.069194303392389
29 37 2 0.83333333333333 -0.01963 0.016763000005488 0.30005468824211 0.069194303392389
29 38 2 0.83333333333333 -0.01963 -0.030099000016463 0.33996695084507 0.076288266607901
30 33 2 0.83333333333333 0.011040999983537 0.013333999989024 0.26014242576773 0.020919999936173
30 34 2 0.83333333333333 0.011040999983537 0.013333999989024 0.26014242576773 0.020919999936173
30 35 2 0.83333333333333 0.011040999983537 -0.029386999994512 0.30005468824211 0.069194303392389
31 33 2 0.83333333333333 0.011040999983537 0.013333999989024 0.26014242576773 0.020919999936173
31 34 2 0.83333333333333 0.011040999983537 0.013333999989024 0.26014242576773 0.020919999936173
31 35 2 0.83333333333333 0.011040999983537 -0.029386999994512 0.30005468824211 0.069194303392389
32 39 2 0.83333333333333 -0.024426999994512 0.020876999994512 0.30005468824211 0.069194303392389
32 40 2 0.83333333333333 -0.024426999994512 0.020876999994512 0.30005468824211 0.069194303392389
32 41 2 0.83333333333333 -0.024426999994512 -0.004882 0.33996695084507 0.076288266607901
33 36 2 0.83333333333333 0.013333999989024 0.016763000005488 0.26014242576773 0.020919999936173
33 37 2 0.83333333333333 0.013333999989024 0.016763000005488 0.26014242576773 0.020919999936173
33 38 2 0.83333333333333 0.013333999989024 -0.030099000016463 0.30005468824211 0.069194303392389
34 36 2 0.83333333333333 0.013333999989024 0.016763000005488 0.26014242576773 0.020919999936173
34 37 2 0.83333333333333 0.013333999989024 0.016763000005488 0.26014242576773 0.020919999936173
34 38 2 0.83333333333333 0.013333999989024 -0.030099000016463 0.30005468824211 0.069194303392389
35 42 2 0.83333333333333 -0.029386999994512 0.019006999994512 0.30005468824211 0.069194303392389
35 43 2 0.83333333333333 -0.029386999994512 0.019006999994512 0.30005468824211 0.069194303392389
35 44 2 0.83333333333333 -0.029386999994512 -0.14925900023597 0.33996695084507 0.076288266607901
36 39 2 0.83333333333333 0.016763000005488 0.020876999994512 0.26014242576773 0.020919999936173
36 40 2 0.83333333333333 0.016763000005488 0.020876999994512 0.26014242576773 0.020919999936173
36 41 2 0.83333333333333 0.016763000005488 -0.004882 0.30005468824211 0.069194303392389
37 39 2 0.83333333333333 0.016763000005488 0.020876999994512 0.26014242576773 0.020919999936173
37 40 2 0.83333333333333 0.016763000005488 0.020876999994512 0.26014242576773 0.020919999936173
37 41 2 0.83333333333333 0.016763000005488 -0.004882 0.30005468824211 0.069194303392389
38 45 2 0.83333333333333 -0.030099000016463 0.047345000027439 0.30005468824211 0.069194303392389
38 46 2 0.83333333333333 -0.030099000016463 0.047345000027439 0.30005468824211 0.069194303392389
38 47 2 0.83333333333333 -0.030099000016463 0.88820699911647 0.33996695087407 0.20291752963184
39 42 2 0.83333333333333 0.020876999994512 0.019006999994512 0.26014242576773 0.020919999936173
39 43 2 0.83333333333333 0.020876999994512 0.019006999994512 0.26014242576773 0.020919999936173
39 44 2 0.83333333333333 0.020876999994512 -0.14925900023597 0.30005468824211 0.069194303392389
40 42 2 0.83333333333333 0.020876999994512 0.019006999994512 0.26014242576773 0.020919999936173
40 43 2 0.83333333333333 0.020876999994512 0.019006999994512 0.26014242576773 0.020919999936173
40 44 2 0.83333333333333 0.020876999994512 -0.14925900023597 0.30005468824211 0.069194303392389
41 48 2 0.83333333333333 -0.004882 -0.67114200183292 0.31797957047595 0.31708813257529
41 49 2 0.83333333333333 -0.004882 -0.54782400026341 0.31998409262799 0.28529542121767
42 45 2 0.83333333333333 0.019006999994512 0.047345000027439 0.26014242576773 0.020919999936173
42 46 2 0.83333333333333 0.019006999994512 0.047345000027439 0.26014242576773 0.020919999936173
42 47 2 0.83333333333333 0.019006999994512 0.88820699911647 0.30005468825729 0.061349482798597
43 45 2 0.83333333333333 0.019006999994512 0.047345000027439 0.26014242576773 0.020919999936173
43 46 2 0.83333333333333 0.019006999994512 0.047345000027439 0.26014242576773 0.020919999936173
43 47 2 0.83333333333333 0.019006999994512 0.88820699911647 0.30005468825729 0.061349482798597
44 50 2 0.83333333333333 -0.14925900023597 0.18529900012622 0.33996695084507 0.2288647998237
45 48 2 0.83333333333333 0.047345000027439 -0.67114200183292 0.27806730790153 0.095867483596702
45 49 2 0.83333333333333 0.047345000027439 -0.54782400026341 0.2800718300513 0.086255369632554
46 48 2 0.83333333333333 0.047345000027439 -0.67114200183292 0.27806730790153 0.095867483596702
46 49 2 0.83333333333333 0.047345000027439 -0.54782400026341 0.2800718300513 0.086255369632554
47 51 2 0.83333333333333 0.88820699911647 0.067675999736586 0.29355112761526 0.076870681673027
47 52 2 0.83333333333333 0.88820699911647 0.067675999736586 0.29355112761526 0.076870681673027
47 53 2 0.83333333333333 0.88820699911647 0.28354600023049 0.33996695087407 0.20291752963184
48 50 2 0.83333333333333 -0.67114200183292 0.18529900012622 0.31797957047595 0.31708813257529
49 54 2 0.83333333333333 -0.54782400026341 0.063861999857318 0.27356826939641 0.10807766839674
49 55 2 0.83333333333333 -0.54782400026341 0.081527999758538 0.31998409262799 0.28529542121767
49 64 2 0.83333333333333 -0.54782400026341 -0.55448700218962 0.30000123432245 0.35564000022068
50 56 2 0.83333333333333 0.18529900012622 0.083099000126219 0.29355112776543 0.086700213146672
50 57 2 0.83333333333333 0.18529900012622 0.083099000126219 0.29355112776543 0.086700213146672
50 58 2 0.83333333333333 0.18529900012622 -0.59419700037866 0.31998409262799 0.28529542121767
50 65 2 0.83333333333333 0.18529900012622 0.89750200029634 0.33996695087407 0.20291752963184
51 54 2 0.83333333333333 0.067675999736586 0.063861999857318 0.24713530426422 0.032844400205981
51 55 2 0.83333333333333 0.067675999736586 0.081527999758538 0.29355112776543 0.086700213146672
51 64 2 0.83333333333333 0.067675999736586 -0.55448700218962 0.27356826939641 0.10807766839674
52 54 2 0.83333333333333 0.067675999736586 0.063861999857318 0.24713530426422 0.032844400205981
52 55 2 0.83333333333333 0.067675999736586 0.081527999758538 0.29355112776543 0.086700213146672
52 64 2 0.83333333333333 0.067675999736586 -0.55448700218962 0.27356826939641 0.10807766839674
53 59 2 0.83333333333333 0.28354600023049 1.4566630008287 0.35707220617836 0.30944633210394
53 66 2 0.83333333333333 0.28354600023049 -0.67162200161341 0.31797957047595 0.31708813257529
53 67 2 0.83333333333333 0.28354600023049 -0.14341799992317 0.33996695084507 0.2288647998237
54 56 2 0.83333333333333 0.063861999857318 0.083099000126219 0.24713530426422 0.032844400205981
54 57 2 0.83333333333333 0.063861999857318 0.083099000126219 0.24713530426422 0.032844400205981
54 58 2 0.83333333333333 0.063861999857318 -0.59419700037866 0.27356826939641 0.10807766839674
54 65 2 0.83333333333333 0.063861999857318 0.89750200029634 0.29355112761526 0.076870681673027
55 60 2 0.83333333333333 0.081527999758538 -0.70619700037866 0.32330714485393 0.31738997747947
55 62 2 0.83333333333333 0.081527999758538 -0.91415799871586 0.31797957047595 0.31708813257529
55 63 2 0.83333333333333 0.081527999758538 -0.91415799871586 0.31797957047595 0.31708813257529
55 65 2 0.83333333333333 0.081527999758538 0.89750200029634 0.33996695087407 0.20291752963184
56 59 2 0.83333333333333 0.083099000126219 1.4566630008287 0.31065638299277 0.11722669057481
56 64 2 0.83333333333333 0.083099000126219 -0.55448700218962 0.27356826939641 0.10807766839674
57 59 2 0.83333333333333 0.083099000126219 1.4566630008287 0.31065638299277 0.11722669057481
57 64 2 0.83333333333333 0.083099000126219 -0.55448700218962 0.27356826939641 0.10807766839674
58 61 2 0.83333333333333 -0.59419700037866 0.41562799975854 0.20345454034333 0.10807766790252
58 64 2 0.83333333333333 -0.59419700037866 -0.55448700218962 0.30000123432245 0.35564000022068
61 62 2 0.83333333333333 0.41562799975854 -0.91415799871586 0.20145001816794 0.12012161236148
61 63 2 0.83333333333333 0.41562799975854 -0.91415799871586 0.20145001816794 0.12012161236148
64 68 2 0.83333333333333 -0.55448700218962 0.042860999983537 0.2800718300513 0.086255369632554
64 69 2 0.83333333333333 -0.55448700218962 0.042860999983537 0.2800718300513 0.086255369632554
64 70 2 0.83333333333333 -0.55448700218962 0.001619 0.31998409262799 0.28529542121767
65 71 2 0.83333333333333 0.89750200029634 0.019529000016463 0.30005468825729 0.061349482798597
65 72 2 0.83333333333333 0.89750200029634 0.019529000016463 0.30005468825729 0.061349482798597
65 73 2 0.83333333333333 0.89750200029634 -0.02296 0.33996695087407 0.20291752963184
66 68 2 0.83333333333333 -0.67162200161341 0.042860999983537 0.27806730790153 0.095867483596702
66 69 2 0.83333333333333 -0.67162200161341 0.042860999983537 0.27806730790153 0.095867483596702
66 70 2 0.83333333333333 -0.67162200161341 0.001619 0.31797957047595 0.31708813257529
67 74 2 0.83333333333333 -0.14341799992317 0.018133999989024 0.30005468824211 0.069194303392389
67 75 2 0.83333333333333 -0.14341799992317 0.018133999989024 0.30005468824211 0.069194303392389
67 76 2 0.83333333333333 -0.14341799992317 -0.016692000021951 0.33996695084507 0.076288266607901
68 71 2 0.83333333333333 0.042860999983537 0.019529000016463 0.26014242576773 0.020919999936173
68 72 2 0.83333333333333 0.042860999983537 0.019529000016463 0.26014242576773 0.020919999936173
68 73 2 0.83333333333333 0.042860999983537 -0.02296 0.30005468824211 0.069194303392389
69 71 2 0.83333333333333 0.042860999983537 0.019529000016463 0.26014242576773 0.020919999936173
69 72 2 0.83333333333333 0.042860999983537 0.019529000016463 0.26014242576773 0.020919999936173
69 73 2 0.83333333333333 0.042860999983537 -0.02296 0.30005468824211 0.069194303392389
70 77 2 0.83333333333333 0.001619 0.00869 0.30005468824211 0.069194303392389
70 78 2 0.83333333333333 0.001619 0.00869 0.30005468824211 0.069194303392389
70 79 2 0.83333333333333 0.001619 -0.023789000016463 0.33996695084507 0.076288266607901
71 74 2 0.83333333333333 0.019529000016463 0.018133999989024 0.26014242576773 0.020919999936173
71 75 2 0.83333333333333 0.019529000016463 0.018133999989024 0.26014242576773 0.020919999936173
71 76 2 0.83333333333333 0.019529000016463 -0.016692000021951 0.30005468824211 0.069194303392389
72 74 2 0.83333333333333 0.019529000016463 0.018133999989024 0.26014242576773 0.020919999936173
72 75 2 0.83333333333333 0.019529000016463 0.018133999989024 0.26014242576773 0.020919999936173
72 76 2 0.83333333333333 0.019529000016463 -0.016692000021951 0.30005468824211 0.069194303392389
73 80 2 0.83333333333333 -0.02296 0.0092660000109756 0.30005468824211 0.069194303392389
73 81 2 0.83333333333333 -0.02296 0.0092660000109756 0.30005468824211 0.069194303392389
73 82 2 0.83333333333333 -0.02296 -0.017495000027439 0.33996695084507 0.076288266607901
74 77 2 0.83333333333333 0.018133999989024 0.00869 0.26014242576773 0.020919999936173
74 78 2 0.83333333333333 0.018133999989024 0.00869 0.26014242576773 0.020919999936173
74 79 2 0.83333333333333 0.018133999989024 -0.023789000016463 0.30005468824211 0.069194303392389
75 77 2 0.83333333333333 0.018133999989024 0.00869 0.26014242576773 0.020919999936173
75 78 2 0.83333333333333 0.018133999989024 0.00869 0.26014242576773 0.020919999936173
75 79 2 0.83333333333333 0.018133999989024 -0.023789000016463 0.30005468824211 0.069194303392389
76 83 2 0.83333333333333 -0.016692000021951 0.019597999978049 0.30005468824211 0.069194303392389
76 84 2 0.83333333333333 -0.016692000021951 0.019597999978049 0.30005468824211 0.069194303392389
76 85 2 0.83333333333333 -0.016692000021951 0.031775000027439 0.33996695084507 0.076288266607901
77 80 2 0.83333333333333 0.00869 0.0092660000109756 0.26014242576773 0.020919999936173
77 81 2 0.83333333333333 0.00869 0.0092660000109756 0.26014242576773 0.020919999936173
77 82 2 0.83333333333333 0.00869 -0.017495000027439 0.30005468824211 0.069194303392389
78 80 2 0.83333333333333 0.00869 0.0092660000109756 0.26014242576773 0.020919999936173
78 81 2 0.83333333333333 0.00869 0.0092660000109756 0.26014242576773 0.020919999936173
78 82 2 0.83333333333333 0.00869 -0.017495000027439 0.30005468824211 0.069194303392389
79 86 2 0.83333333333333 -0.023789000016463 0.032685000027439 0.30005468824211 0.069194303392389
79 87 2 0.83333333333333 -0.023789000016463 0.032685000027439 0.30005468824211 0.069194303392389
79 88 2 0.83333333333333 -0.023789000016463 -0.24422799975854 0.33996695087407 0.20291752963184
80 83 2 0.83333333333333 0.0092660000109756 0.019597999978049 0.26014242576773 0.020919999936173
80 84 2 0.83333333333333 0.0092660000109756 0.019597999978049 0.26014242576773 0.020919999936173
80 85 2 0.83333333333333 0.0092660000109756 0.031775000027439 0.30005468824211 0.069194303392389
81 83 2 0.83333333333333 0.0092660000109756 0.019597999978049 0.26014242576773 0.020919999936173
81 84 2 0.83333333333333 0.0092660000109756 0.019597999978049 0.26014242576773 0.020919999936173
81 85 2 0.83333333333333 0.0092660000109756 0.031775000027439 0.30005468824211 0.069194303392389
82 89 2 0.83333333333333 -0.017495000027439 0.13151200013171 0.28134581515096 0.057892107742859
82 90 2 0.83333333333333 -0.017495000027439 -0.23928399982439 0.33996695087407 0.20291752963184
83 86 2 0.83333333333333 0.019597999978049 0.032685000027439 0.26014242576773 0.020919999936173
83 87 2 0.83333333333333 0.019597999978049 0.032685000027439 0.26014242576773 0.020919999936173
83 88 2 0.83333333333333 0.019597999978049 -0.24422799975854 0.30005468825729 0.061349482798597
84 86 2 0.83333333333333 0.019597999978049 0.032685000027439 0.26014242576773 0.020919999936173
84 87 2 0.83333333333333 0.019597999978049 0.032685000027439 0.26014242576773 0.020919999936173
84 88 2 0.83333333333333 0.019597999978049 -0.24422799975854 0.30005468825729 0.061349482798597
85 91 2 0.83333333333333 0.031775000027439 0.12687800003293 0.28134581515096 0.057892107742859
85 92 2 0.83333333333333 0.031775000027439 0.029059000016463 0.33996695084507 0.2288647998237
86 89 2 0.83333333333333 0.032685000027439 0.13151200013171 0.24143355271439 0.017502927720476
86 90 2 0.83333333333333 0.032685000027439 -0.23928399982439 0.30005468825729 0.061349482798597
87 89 2 0.83333333333333 0.032685000027439 0.13151200013171 0.24143355271439 0.017502927720476
87 90 2 0.83333333333333 0.032685000027439 -0.23928399982439 0.30005468825729 0.061349482798597
88 93 2 0.83333333333333 -0.24422799975854 0.033530999983537 0.30005468825729 0.061349482798597
88 94 2 0.83333333333333 -0.24422799975854 0.033530999983537 0.30005468825729 0.061349482798597
88 95 2 0.83333333333333 -0.24422799975854 -0.026353000005488 0.33996695087407 0.20291752963184
89 91 2 0.83333333333333 0.13151200013171 0.12687800003293 0.22272467949703 0.014644000015013
89 92 2 0.83333333333333 0.13151200013171 0.029059000016463 0.28134581515096 0.057892107742859
90 96 2 0.83333333333333 -0.23928399982439 0.019716999994512 0.30005468825729 0.061349482798597
90 97 2 0.83333333333333 -0.23928399982439 0.019716999994512 0.30005468825729 0.061349482798597
90 98 2 0.83333333333333 -0.23928399982439 -0.018256999994512 0.33996695087407 0.20291752963184
91 93 2 0.83333333333333 0.12687800003293 0.033530999983537 0.24143355271439 0.017502927720476
91 94 2 0.83333333333333 0.12687800003293 0.033530999983537 0.24143355271439 0.017502927720476
91 95 2 0.83333333333333 0.12687800003293 -0.026353000005488 0.28134581515096 0.057892107742859
92 99 2 0.83333333333333 0.029059000016463 0.0138 0.30005468824211 0.069194303392389
92 100 2 0.83333333333333 0.029059000016463 0.0138 0.30005468824211 0.069194303392389
92 101 2 0.83333333333333 0.029059000016463 -0.024849000016463 0.33996695084507 0.076288266607901
93 96 2 0.83333333333333 0.033530999983537 0.019716999994512 0.26014242576773 0.020919999936173
93 97 2 0.83333333333333 0.033530999983537 0.019716999994512 0.26014242576773 0.020919999936173
93 98 2 0.83333333333333 0.033530999983537 -0.018256999994512 0.30005468824211 0.069194303392389
94 96 2 0.83333333333333 0.033530999983537 0.019716999994512 0.26014242576773 0.020919999936173
94 97 2 0.83333333333333 0.033530999983537 0.019716999994512 0.26014242576773 0.020919999936173
94 98 2 0.83333333333333 0.033530999983537 -0.018256999994512 0.30005468824211 0.069194303392389
95 102 2 0.83333333333333 -0.026353000005488 0.0085720000219511 0.30005468824211 0.069194303392389
95 103 2 0.83333333333333 -0.026353000005488 0.0085720000219511 0.30005468824211 0.069194303392389
95 104 2 0.83333333333333 -0.026353000005488 -0.023246999994512 0.33996695084507 0.076288266607901
96 99 2 0.83333333333333 0.019716999994512 0.0138 0.26014242576773 0.020919999936173
96 100 2 0.83333333333333 0.019716999994512 0.0138 0.26014242576773 0.020919999936173
96 101 2 0.83333333333333 0.019716999994512 -0.024849000016463 0.30005468824211 0.069194303392389
97 99 2 0.83333333333333 0.019716999994512 0.0138 0.26014242576773 0.020919999936173
97 100 2 0.83333333333333 0.019716999994512 0.0138 0.26014242576773 0.020919999936173
97 101 2 0.83333333333333 0.019716999994512 -0.024849000016463 0.30005468824211 0.069194303392389
98 105 2 0.83333333333333 -0.018256999994512 0.010403000005488 0.30005468824211 0.069194303392389
98 106 2 0.83333333333333 -0.018256999994512 0.010403000005488 0.30005468824211 0.069194303392389
98 107 2 0.83333333333333 -0.018256999994512 -0.012487999978049 0.33996695084507 0.076288266607901
99 102 2 0.83333333333333 0.0138 0.0085720000219511 0.26014242576773 0.020919999936173
99 103 2 0.83333333333333 0.0138 0.0085720000219511 0.26014242576773 0.020919999936173
99 104 2 0.83333333333333 0.0138 -0.023246999994512 0.30005468824211 0.069194303392389
100 102 2 0.83333333333333 0.0138 0.0085720000219511 0.26014242576773 0.020919999936173
100 103 2 0.83333333333333 0.0138 0.0085720000219511 0.26014242576773 0.020919999936173
100 104 2 0.83333333333333 0.0138 -0.023246999994512 0.30005468824211 0.069194303392389
101 108 2 0.83333333333333 -0.024849000016463 0.013659000016463 0.30005468824211 0.069194303392389
101 109 2 0.83333333333333 -0.024849000016463 0.013659000016463 0.30005468824211 0.069194303392389
101 110 2 0.83333333333333 -0.024849000016463 0.0086839999890244 0.33996695084507 0.076288266607901
102 105 2 0.83333333333333 0.0085720000219511 0.010403000005488 0.26014242576773 0.020919999936173
102 106 2 0.83333333333333 0.0085720000219511 0.010403000005488 0.26014242576773 0.020919999936173
102 107 2 0.83333333333333 0.0085720000219511 -0.012487999978049 0.30005468824211 0.069194303392389
103 105 2 0.83333333333333 0.0085720000219511 0.010403000005488 0.26014242576773 0.020919999936173
103 106 2 0.83333333333333 0.0085720000219511 0.010403000005488 0.26014242576773 0.020919999936173
103 107 2 0.83333333333333 0.0085720000219511 -0.012487999978049 0.30005468824211 0.069194303392389
104 111 2 0.83333333333333 -0.023246999994512 0.010026000010976 0.30005468824211 0.069194303392389
104 112 2 0.83333333333333 -0.023246999994512 0.010026000010976 0.30005468824211 0.069194303392389
104 113 2 0.83333333333333 -0.023246999994512 -0.11729000016463 0.33996695084507 0.076288266607901
105 108 2 0.83333333333333 0.010403000005488 0.013659000016463 0.26014242576773 0.020919999936173
105 109 2 0.83333333333333 0.010403000005488 0.013659000016463 0.26014242576773 0.020919999936173
105 110 2 0.83333333333333 0.010403000005488 0.0086839999890244 0.30005468824211 0.069194303392389
106 108 2 0.83333333333333 0.010403000005488 0.013659000016463 0.26014242576773 0.020919999936173
106 109 2 0.83333333333333 0.010403000005488 0.013659000016463 0.26014242576773 0.020919999936173
106 110 2 0.83333333333333 0.010403000005488 0.0086839999890244 0.30005468824211 0.069194303392389
107 114 2 0.83333333333333 -0.012487999978049 0.026626999994512 0.30005468824211 0.069194303392389
107 115 2 0.83333333333333 -0.012487999978049 0.026626999994512 0.30005468824211 0.069194303392389
107 116 2 0.83333333333333 -0.012487999978049 0.026626999994512 0.30005468824211 0.069194303392389
108 111 2 0.83333333333333 0.013659000016463 0.010026000010976 0.26014242576773 0.020919999936173
108 112 2 0.83333333333333 0.013659000016463 0.010026000010976 0.26014242576773 0.020919999936173
108 113 2 0.83333333333333 0.013659000016463 -0.11729000016463 0.30005468824211 0.069194303392389
109 111 2 0.83333333333333 0.013659000016463 0.010026000010976 0.26014242576773 0.020919999936173
109 112 2 0.83333333333333 0.013659000016463 0.010026000010976 0.26014242576773 0.020919999936173
109 113 2 0.83333333333333 0.013659000016463 -0.11729000016463 0.30005468824211 0.069194303392389
111 114 2 0.83333333333333 0.010026000010976 0.026626999994512 0.26014242576773 0.020919999936173
111 115 2 0.83333333333333 0.010026000010976 0.026626999994512 0.26014242576773 0.020919999936173
111 116 2 0.83333333333333 0.010026000010976 0.026626999994512 0.26014242576773 0.020919999936173
112 114 2 0.83333333333333 0.010026000010976 0.026626999994512 0.26014242576773 0.020919999936173
112 115 2 0.83333333333333 0.010026000010976 0.026626999994512 0.26014242576773 0.020919999936173
112 116 2 0.83333333333333 0.010026000010976 0.026626999994512 0.26014242576773 0.020919999936173

[ angles ]
;    ai     aj     ak funct         c0         c1         c2         c3
     44     47     48     1   123.1100526 569.275040
     44     47     49     1   111.9600481 579.567680
     41     44     47     1   110.5300474 533.794720
     38     41     44     1   112.0500483 394.969600
     35     38     41     1   112.0500483 394.969600
     32     35     38     1   112.0500483 394.969600
     29     32     35     1   112.0500483 394.969600
     26     29     32     1   112.0500483 394.969600
     23     26     29     1   112.0500483 394.969600
     20     23     26     1   112.0500483 394.969600
     17     20     23     1   112.0500483 394.969600
     14     17     20     1   112.0500483 394.969600
     11     14     17     1   112.0500483 394.969600
      8     11     14     1   112.0500483 394.969600
      5      8     11     1   112.0500483 394.969600
      1      5      8     1   112.0500483 394.969600
     66     65     67     1   123.1100526 569.275040
     65     67     70     1   110.5300474 533.794720
     64     65     66     1   123.3300529 635.382240
     64     65     67     1   111.9600481 579.567680
     62     59     63     1   119.9000514 1171.520000
     60     59     62     1   115.2600495 366.434720
     60     59     63     1   115.2600495 366.434720
     58     59     60     1   102.3700438 375.806880
     58     59     62     1   108.2300464 836.800000
     58     59     63     1   108.2300464 836.800000
     55     53     64     1   108.4200467 567.183040
     55     58     59     1   120.5000516 836.800000
     53     55     58     1   108.4200467 567.183040
     53     64     65     1   115.1400492 532.455840
     50     53     55     1   110.6300475 528.941280
     50     53     64     1   108.4200467 567.183040
     49     50     53     1   108.4200467 567.183040
     48     47     49     1   123.3300529 635.382240
     47     49     50     1   115.1400492 532.455840
    107    110    113     1   112.0500483 394.969600
    104    107    110     1   112.0500483 394.969600
    101    104    107     1   112.0500483 394.969600
     98    101    104     1   112.0500483 394.969600
     95     98    101     1   112.0500483 394.969600
     92     95     98     1   112.0500483 394.969600
     90     92     95     1   111.4400476 531.619040
     88     90     92     1   123.4200531 538.313440
     85     88     90     1   123.4200531 538.313440
     82     85     88     1   111.4400476 531.619040
     79     82     85     1   112.0500483 394.969600
     76     79     82     1   112.0500483 394.969600
     73     76     79     1   112.0500483 394.969600
     70     73     76     1   112.0500483 394.969600
     67     70     73     1   112.0500483 394.969600
     46     44     47     1   109.6800468 394.969600
     45     44     46     1   108.3500467 329.950240
     45     44     47     1   109.6800468 394.969600
     43     41     44     1   110.0500475 388.024160
     42     41     43     1   108.3500467 329.950240
     42     41     44     1   110.0500475 388.024160
     41     44     45     1   110.0500475 388.024160
     41     44     46     1   110.0500475 388.024160
     40     38     41     1   110.0500475 388.024160
     39     38     40     1   108.3500467 329.950240
     39     38     41     1   110.0500475 388.024160
     38     41     42     1   110.0500475 388.024160
     38     41     43     1   110.0500475 388.024160
     37     35     38     1   110.0500475 388.024160
     36     35     37     1   108.3500467 329.950240
     36     35     38     1   110.0500475 388.024160
     35     38     39     1   110.0500475 388.024160
     35     38     40     1   110.0500475 388.024160
     34     32     35     1   110.0500475 388.024160
     33     32     34     1   108.3500467 329.950240
     33     32     35     1   110.0500475 388.024160
     32     35     36     1   110.0500475 388.024160
     32     35     37     1   110.0500475 388.024160
     31     29     32     1   110.0500475 388.024160
     30     29     31     1   108.3500467 329.950240
     30     29     32     1   110.0500475 388.024160
     29     32     33     1   110.0500475 388.024160
     29     32     34     1   110.0500475 388.024160
     28     26     29     1   110.0500475 388.024160
     27     26     28     1   108.3500467 329.950240
     27     26     29     1   110.0500475 388.024160
     26     29     30     1   110.0500475 388.024160
     26     29     31     1   110.0500475 388.024160
     25     23     26     1   110.0500475 388.024160
     24     23     25     1   108.3500467 329.950240
     24     23     26     1   110.0500475 388.024160
     23     26     27     1   110.0500475 388.024160
     23     26     28     1   110.0500475 388.024160
     22     20     23     1   110.0500475 388.024160
     21     20     22     1   108.3500467 329.950240
     21     20     23     1   110.0500475 388.024160
     20     23     24     1   110.0500475 388.024160
     20     23     25     1   110.0500475 388.024160
     19     17     20     1   110.0500475 388.024160
     18     17     19     1   108.3500467 329.950240
     18     17     20     1   110.0500475 388.024160
     17     20     21     1   110.0500475 388.024160
     17     20     22     1   110.0500475 388.024160
     16     14     17     1   110.0500475 388.024160
     15     14     16     1   108.3500467 329.950240
     15     14     17     1   110.0500475 388.024160
     14     17     18     1   110.0500475 388.024160
     14     17     19     1   110.0500475 388.024160
     13     11     14     1   110.0500475 388.024160
     12     11     13     1   108.3500467 329.950240
     12     11     14     1   110.0500475 388.024160
     11     14     15     1   110.0500475 388.024160
     11     14     16     1   110.0500475 388.024160
     10      8     11     1   110.0500475 388.024160
      9      8     10     1   108.3500467 329.950240
      9      8     11     1   110.0500475 388.024160
      8     11     12     1   110.0500475 388.024160
      8     11     13     1   110.0500475 388.024160
      7      5      8     1   110.0500475 388.024160
      6      5      7     1   108.3500467 329.950240
      6      5      8     1   110.0500475 388.024160
      5      8      9     1   110.0500475 388.024160
      5      8     10     1   110.0500475 388.024160
      4      1      5     1   110.0500475 388.024160
      3      1      4     1   108.3500467 329.950240
      3      1      5     1   110.0500475 388.024160
      2      1      3     1   108.3500467 329.950240
      2      1      4     1   108.3500467 329.950240
      2      1      5     1   110.0500475 388.024160
      1      5      6     1   110.0500475 388.024160
      1      5      7     1   110.0500475 388.024160
     65     67     68     1   109.6800468 394.969600
     65     67     69     1   109.6800468 394.969600
     59     60     61     1   110.1400471 467.603840
     57     55     58     1   108.8200469 425.429120
     56     55     57     1   109.5500472 327.858240
     56     55     58     1   108.8200469 425.429120
     54     53     55     1   110.0700471 387.940480
     54     53     64     1   108.8200469 425.429120
     53     55     56     1   110.0700471 387.940480
     53     55     57     1   110.0700471 387.940480
     52     50     53     1   110.0700471 387.940480
     51     50     52     1   109.5500472 327.858240
     51     50     53     1   110.0700471 387.940480
     50     53     54     1   110.0700471 387.940480
     49     50     51     1   108.8200469 425.429120
     49     50     52     1   108.8200469 425.429120
    115    113    116     1   108.3500467 329.950240
    114    113    115     1   108.3500467 329.950240
    114    113    116     1   108.3500467 329.950240
    112    110    113     1   110.0500475 388.024160
    111    110    112     1   108.3500467 329.950240
    111    110    113     1   110.0500475 388.024160
    110    113    114     1   110.0500475 388.024160
    110    113    115     1   110.0500475 388.024160
    110    113    116     1   110.0500475 388.024160
    109    107    110     1   110.0500475 388.024160
    108    107    109     1   108.3500467 329.950240
    108    107    110     1   110.0500475 388.024160
    107    110    111     1   110.0500475 388.024160
    107    110    112     1   110.0500475 388.024160
    106    104    107     1   110.0500475 388.024160
    105    104    106     1   108.3500467 329.950240
    105    104    107     1   110.0500475 388.024160
    104    107    108     1   110.0500475 388.024160
    104    107    109     1   110.0500475 388.024160
    103    101    104     1   110.0500475 388.024160
    102    101    103     1   108.3500467 329.950240
    102    101    104     1   110.0500475 388.024160
    101    104    105     1   110.0500475 388.024160
    101    104    106     1   110.0500475 388.024160
    100     98    101     1   110.0500475 388.024160
     99     98    100     1   108.3500467 329.950240
     99     98    101     1   110.0500475 388.024160
     98    101    102     1   110.0500475 388.024160
     98    101    103     1   110.0500475 388.024160
     97     95     98     1   110.0500475 388.024160
     96     95     97     1   108.3500467 329.950240
     96     95     98     1   110.0500475 388.024160
     95     98     99     1   110.0500475 388.024160
     95     98    100     1   110.0500475 388.024160
     94     92     95     1   110.0500475 388.024160
     93     92     94     1   108.3500467 329.950240
     93     92     95     1   110.0500475 388.024160
     92     95     96     1   110.0500475 388.024160
     92     95     97     1   110.0500475 388.024160
     91     90     92     1   117.3000503 382.082880
     90     92     93     1   110.4900475 393.547040
     90     92     94     1   110.4900475 393.547040
     89     88     90     1   120.9400517 418.734720
     88     90     91     1   120.9400517 418.734720
     87     85     88     1   110.4900475 393.547040
     86     85     87     1   108.3500467 329.950240
     86     85     88     1   110.4900475 393.547040
     85     88     89     1   117.3000503 382.082880
     84     82     85     1   110.0500475 388.024160
     83     82     84     1   108.3500467 329.950240
     83     82     85     1   110.0500475 388.024160
     82     85     86     1   110.0500475 388.024160
     82     85     87     1   110.0500475 388.024160
     81     79     82     1   110.0500475 388.024160
     80     79     81     1   108.3500467 329.950240
     80     79     82     1   110.0500475 388.024160
     79     82     83     1   110.0500475 388.024160
     79     82     84     1   110.0500475 388.024160
     78     76     79     1   110.0500475 388.024160
     77     76     78     1   108.3500467 329.950240
     77     76     79     1   110.0500475 388.024160
     76     79     80     1   110.0500475 388.024160
     76     79     81     1   110.0500475 388.024160
     75     73     76     1   110.0500475 388.024160
     74     73     75     1   108.3500467 329.950240
     74     73     76     1   110.0500475 388.024160
     73     76     77     1   110.0500475 388.024160
     73     76     78     1   110.0500475 388.024160
     72     70     73     1   110.0500475 388.024160
     71     70     72     1   108.3500467 329.950240
     71     70     73     1   110.0500475 388.024160
     70     73     74     1   110.0500475 388.024160
     70     73     75     1   110.0500475 388.024160
     69     67     70     1   110.0500475 388.024160
     68     67     69     1   108.3500467 329.950240
     68     67     70     1   110.0500475 388.024160
     67     70     71     1   110.0500475 388.024160
     67     70     72     1   110.0500475 388.024160


[ dihedrals ]
;    ai     aj     ak     al funct         c0         c1         c2         c3         c4         c5
     44     47     49     50     1  180.0000771  11.2968000  2
     41     44     47     48     1  180.0000771  0.0000000  2
     41     44     47     49     1  180.0000771  0.0000000  2
     38     41     44     47     1  0.0000000  0.6527040  3
     35     38     41     44     1  0.0000000  0.4184000  1
     35     38     41     44     1  0.0000000  0.4184000  2
     35     38     41     44     1  0.0000000  1.2552000  3
     35     38     41     44     1  0.0000000  0.4184000  4
     35     38     41     44     1  0.0000000  0.4184000  5
     32     35     38     41     1  0.0000000  0.4184000  1
     32     35     38     41     1  0.0000000  0.4184000  2
     32     35     38     41     1  0.0000000  1.2552000  3
     32     35     38     41     1  0.0000000  0.4184000  4
     32     35     38     41     1  0.0000000  0.4184000  5
     29     32     35     38     1  0.0000000  0.4184000  1
     29     32     35     38     1  0.0000000  0.4184000  2
     29     32     35     38     1  0.0000000  1.2552000  3
     29     32     35     38     1  0.0000000  0.4184000  4
     29     32     35     38     1  0.0000000  0.4184000  5
     26     29     32     35     1  0.0000000  0.4184000  1
     26     29     32     35     1  0.0000000  0.4184000  2
     26     29     32     35     1  0.0000000  1.2552000  3
     26     29     32     35     1  0.0000000  0.4184000  4
     26     29     32     35     1  0.0000000  0.4184000  5
     23     26     29     32     1  0.0000000  0.4184000  1
     23     26     29     32     1  0.0000000  0.4184000  2
     23     26     29     32     1  0.0000000  1.2552000  3
     23     26     29     32     1  0.0000000  0.4184000  4
     23     26     29     32     1  0.0000000  0.4184000  5
     20     23     26     29     1  0.0000000  0.4184000  1
     20     23     26     29     1  0.0000000  0.4184000  2
     20     23     26     29     1  0.0000000  1.2552000  3
     20     23     26     29     1  0.0000000  0.4184000  4
     20     23     26     29     1  0.0000000  0.4184000  5
     17     20     23     26     1  0.0000000  0.4184000  1
     17     20     23     26     1  0.0000000  0.4184000  2
     17     20     23     26     1  0.0000000  1.2552000  3
     17     20     23     26     1  0.0000000  0.4184000  4
     17     20     23     26     1  0.0000000  0.4184000  5
     14     17     20     23     1  0.0000000  0.4184000  1
     14     17     20     23     1  0.0000000  0.4184000  2
     14     17     20     23     1  0.0000000  1.2552000  3
     14     17     20     23     1  0.0000000  0.4184000  4
     14     17     20     23     1  0.0000000  0.4184000  5
     11     14     17     20     1  0.0000000  0.4184000  1
     11     14     17     20     1  0.0000000  0.4184000  2
     11     14     17     20     1  0.0000000  1.2552000  3
     11     14     17     20     1  0.0000000  0.4184000  4
     11     14     17     20     1  0.0000000  0.4184000  5
      8     11     14     17     1  0.0000000  0.4184000  1
      8     11     14     17     1  0.0000000  0.4184000  2
      8     11     14     17     1  0.0000000  1.2552000  3
      8     11     14     17     1  0.0000000  0.4184000  4
      8     11     14     17     1  0.0000000  0.4184000  5
      5      8     11     14     1  0.0000000  0.4184000  1
      5      8     11     14     1  0.0000000  0.4184000  2
      5      8     11     14     1  0.0000000  1.2552000  3
      5      8     11     14     1  0.0000000  0.4184000  4
      5      8     11     14     1  0.0000000  0.4184000  5
      1      5      8     11     1  0.0000000  0.4184000  1
      1      5      8     11     1  0.0000000  0.4184000  2
      1      5      8     11     1  0.0000000  1.2552000  3
      1      5      8     11     1  0.0000000  0.4184000  4
      1      5      8     11     1  0.0000000  0.4184000  5
     66     65     67     70     1  180.0000771  0.0000000  2
     65     67     70     73     1  0.0000000  0.6527040  3
     64     65     67     70     1  180.0000771  0.0000000  2
     58     55     53     64     1  0.0000000  0.0000000  1
     58     55     53     64     1  0.0000000  0.0000000  2
     58     55     53     64     1  0.0000000  0.0000000  3
     58     55     53     64     1  0.0000000  0.0000000  4
     58     55     53     64     1  0.0000000  0.0000000  5
     55     53     64     65     1  0.0000000  -0.4184000  1
     55     53     64     65     1  240.0001029  -1.2552000  2
     55     53     64     65     1  300.0001286  -0.8368000  3
     55     58     59     60     1  0.0000000  5.0208000  2
     55     58     59     60     1  0.0000000  1.0460000  3
     55     58     59     62     1  0.0000000  0.0000000  1
     55     58     59     62     1  0.0000000  0.8368000  2
     55     58     59     62     1  0.0000000  0.0000000  3
     55     58     59     62     1  0.0000000  0.0000000  4
     55     58     59     62     1  0.0000000  0.0000000  5
     55     58     59     63     1  0.0000000  0.0000000  1
     55     58     59     63     1  0.0000000  0.8368000  2
     55     58     59     63     1  0.0000000  0.0000000  3
     55     58     59     63     1  0.0000000  0.0000000  4
     55     58     59     63     1  0.0000000  0.0000000  5
     53     55     58     59     1  180.0000771  -3.3472000  2
     53     55     58     59     1  0.0000000  0.0000000  3
     53     64     65     66     1  180.0000771  5.8576000  1
     53     64     65     66     1  180.0000771  11.2968000  2
     53     64     65     67     1  180.0000771  11.2968000  2
     50     53     55     58     1  180.0000771  3.3472000  1
     50     53     55     58     1  120.0000514  0.8368000  2
     50     53     55     58     1  60.0000257  1.6736000  3
     50     53     64     65     1  0.0000000  -0.4184000  1
     50     53     64     65     1  240.0001029  -1.2552000  2
     50     53     64     65     1  300.0001286  -0.8368000  3
     49     50     53     55     1  0.0000000  0.0000000  1
     49     50     53     55     1  0.0000000  0.0000000  2
     49     50     53     55     1  0.0000000  0.0000000  3
     49     50     53     55     1  0.0000000  0.0000000  4
     49     50     53     55     1  0.0000000  0.0000000  5
     49     50     53     64     1  180.0000771  -0.4184000  1
     49     50     53     64     1  0.0000000  1.2552000  2
     49     50     53     64     1  0.0000000  4.1840000  3
     48     47     49     50     1  180.0000771  5.8576000  1
     48     47     49     50     1  180.0000771  11.2968000  2
     47     49     50     53     1  0.0000000  -0.4184000  1
     47     49     50     53     1  240.0001029  -1.2552000  2
     47     49     50     53     1  300.0001286  -0.8368000  3
    104    107    110    113     1  0.0000000  0.4184000  1
    104    107    110    113     1  0.0000000  0.4184000  2
    104    107    110    113     1  0.0000000  1.2552000  3
    104    107    110    113     1  0.0000000  0.4184000  4
    104    107    110    113     1  0.0000000  0.4184000  5
    101    104    107    110     1  0.0000000  0.4184000  1
    101    104    107    110     1  0.0000000  0.4184000  2
    101    104    107    110     1  0.0000000  1.2552000  3
    101    104    107    110     1  0.0000000  0.4184000  4
    101    104    107    110     1  0.0000000  0.4184000  5
     98    101    104    107     1  0.0000000  0.4184000  1
     98    101    104    107     1  0.0000000  0.4184000  2
     98    101    104    107     1  0.0000000  1.2552000  3
     98    101    104    107     1  0.0000000  0.4184000  4
     98    101    104    107     1  0.0000000  0.4184000  5
     95     98    101    104     1  0.0000000  0.4184000  1
     95     98    101    104     1  0.0000000  0.4184000  2
     95     98    101    104     1  0.0000000  1.2552000  3
     95     98    101    104     1  0.0000000  0.4184000  4
     95     98    101    104     1  0.0000000  0.4184000  5
     92     95     98    101     1  0.0000000  0.4184000  1
     92     95     98    101     1  0.0000000  0.4184000  2
     92     95     98    101     1  0.0000000  1.2552000  3
     92     95     98    101     1  0.0000000  0.4184000  4
     92     95     98    101     1  0.0000000  0.4184000  5
     90     92     95     98     1  0.0000000  0.0000000  1
     90     92     95     98     1  0.0000000  0.0000000  2
     90     92     95     98     1  0.0000000  2.0920000  3
     90     92     95     98     1  0.0000000  0.0000000  4
     90     92     95     98     1  0.0000000  0.4184000  5
     88     90     92     95     1  0.0000000  2.5104000  1
     88     90     92     95     1  180.0000771  1.6736000  2
     88     90     92     95     1  180.0000771  1.6736000  3
     88     90     92     95     1  180.0000771  0.8368000  4
     88     90     92     95     1  180.0000771  0.8368000  5
     85     88     90     92     1  180.0000771  7.1128000  1
     85     88     90     92     1  180.0000771  13.8072000  2
     85     88     90     92     1  0.0000000  2.5104000  3
     85     88     90     92     1  0.0000000  0.0000000  4
     85     88     90     92     1  0.0000000  0.0000000  5
     82     85     88     90     1  0.0000000  2.5104000  1
     82     85     88     90     1  180.0000771  1.6736000  2
     82     85     88     90     1  180.0000771  1.6736000  3
     82     85     88     90     1  180.0000771  0.8368000  4
     82     85     88     90     1  180.0000771  0.8368000  5
     79     82     85     88     1  0.0000000  0.0000000  1
     79     82     85     88     1  0.0000000  0.0000000  2
     79     82     85     88     1  0.0000000  2.0920000  3
     79     82     85     88     1  0.0000000  0.0000000  4
     79     82     85     88     1  0.0000000  0.4184000  5
     76     79     82     85     1  0.0000000  0.4184000  1
     76     79     82     85     1  0.0000000  0.4184000  2
     76     79     82     85     1  0.0000000  1.2552000  3
     76     79     82     85     1  0.0000000  0.4184000  4
     76     79     82     85     1  0.0000000  0.4184000  5
     73     76     79     82     1  0.0000000  0.4184000  1
     73     76     79     82     1  0.0000000  0.4184000  2
     73     76     79     82     1  0.0000000  1.2552000  3
     73     76     79     82     1  0.0000000  0.4184000  4
     73     76     79     82     1  0.0000000  0.4184000  5
     70     73     76     79     1  0.0000000  0.4184000  1
     70     73     76     79     1  0.0000000  0.4184000  2
     70     73     76     79     1  0.0000000  1.2552000  3
     70     73     76     79     1  0.0000000  0.4184000  4
     70     73     76     79     1  0.0000000  0.4184000  5
     67     70     73     76     1  0.0000000  0.4184000  1
     67     70     73     76     1  0.0000000  0.4184000  2
     67     70     73     76     1  0.0000000  1.2552000  3
     67     70     73     76     1  0.0000000  0.4184000  4
     67     70     73     76     1  0.0000000  0.4184000  5
     67     66     65     64     4  180.0000771  43.9320000  2
     44     48     47     49     4  180.0000771  43.9320000  2
     46     44     47     48     1  0.0000000  3.3472000  1
     46     44     47     48     1  180.0000771  0.3347200  3
     46     44     47     49     1  180.0000771  0.0000000  2
     45     44     47     48     1  0.0000000  3.3472000  1
     45     44     47     48     1  180.0000771  0.3347200  3
     45     44     47     49     1  180.0000771  0.0000000  2
     43     41     44     45     1  0.0000000  0.6276000  3
     43     41     44     46     1  0.0000000  0.6276000  3
     43     41     44     47     1  0.0000000  0.6527040  3
     42     41     44     45     1  0.0000000  0.6276000  3
     42     41     44     46     1  0.0000000  0.6276000  3
     42     41     44     47     1  0.0000000  0.6527040  3
     40     38     41     42     1  0.0000000  0.6276000  3
     40     38     41     43     1  0.0000000  0.6276000  3
     40     38     41     44     1  0.0000000  0.6694400  3
     39     38     41     42     1  0.0000000  0.6276000  3
     39     38     41     43     1  0.0000000  0.6276000  3
     39     38     41     44     1  0.0000000  0.6694400  3
     38     41     44     45     1  0.0000000  0.6694400  3
     38     41     44     46     1  0.0000000  0.6694400  3
     37     35     38     39     1  0.0000000  0.6276000  3
     37     35     38     40     1  0.0000000  0.6276000  3
     37     35     38     41     1  0.0000000  0.6694400  3
     36     35     38     39     1  0.0000000  0.6276000  3
     36     35     38     40     1  0.0000000  0.6276000  3
     36     35     38     41     1  0.0000000  0.6694400  3
     35     38     41     42     1  0.0000000  0.6694400  3
     35     38     41     43     1  0.0000000  0.6694400  3
     34     32     35     36     1  0.0000000  0.6276000  3
     34     32     35     37     1  0.0000000  0.6276000  3
     34     32     35     38     1  0.0000000  0.6694400  3
     33     32     35     36     1  0.0000000  0.6276000  3
     33     32     35     37     1  0.0000000  0.6276000  3
     33     32     35     38     1  0.0000000  0.6694400  3
     32     35     38     39     1  0.0000000  0.6694400  3
     32     35     38     40     1  0.0000000  0.6694400  3
     31     29     32     33     1  0.0000000  0.6276000  3
     31     29     32     34     1  0.0000000  0.6276000  3
     31     29     32     35     1  0.0000000  0.6694400  3
     30     29     32     33     1  0.0000000  0.6276000  3
     30     29     32     34     1  0.0000000  0.6276000  3
     30     29     32     35     1  0.0000000  0.6694400  3
     29     32     35     36     1  0.0000000  0.6694400  3
     29     32     35     37     1  0.0000000  0.6694400  3
     28     26     29     30     1  0.0000000  0.6276000  3
     28     26     29     31     1  0.0000000  0.6276000  3
     28     26     29     32     1  0.0000000  0.6694400  3
     27     26     29     30     1  0.0000000  0.6276000  3
     27     26     29     31     1  0.0000000  0.6276000  3
     27     26     29     32     1  0.0000000  0.6694400  3
     26     29     32     33     1  0.0000000  0.6694400  3
     26     29     32     34     1  0.0000000  0.6694400  3
     25     23     26     27     1  0.0000000  0.6276000  3
     25     23     26     28     1  0.0000000  0.6276000  3
     25     23     26     29     1  0.0000000  0.6694400  3
     24     23     26     27     1  0.0000000  0.6276000  3
     24     23     26     28     1  0.0000000  0.6276000  3
     24     23     26     29     1  0.0000000  0.6694400  3
     23     26     29     30     1  0.0000000  0.6694400  3
     23     26     29     31     1  0.0000000  0.6694400  3
     22     20     23     24     1  0.0000000  0.6276000  3
     22     20     23     25     1  0.0000000  0.6276000  3
     22     20     23     26     1  0.0000000  0.6694400  3
     21     20     23     24     1  0.0000000  0.6276000  3
     21     20     23     25     1  0.0000000  0.6276000  3
     21     20     23     26     1  0.0000000  0.6694400  3
     20     23     26     27     1  0.0000000  0.6694400  3
     20     23     26     28     1  0.0000000  0.6694400  3
     19     17     20     21     1  0.0000000  0.6276000  3
     19     17     20     22     1  0.0000000  0.6276000  3
     19     17     20     23     1  0.0000000  0.6694400  3
     18     17     20     21     1  0.0000000  0.6276000  3
     18     17     20     22     1  0.0000000  0.6276000  3
     18     17     20     23     1  0.0000000  0.6694400  3
     17     20     23     24     1  0.0000000  0.6694400  3
     17     20     23     25     1  0.0000000  0.6694400  3
     16     14     17     18     1  0.0000000  0.6276000  3
     16     14     17     19     1  0.0000000  0.6276000  3
     16     14     17     20     1  0.0000000  0.6694400  3
     15     14     17     18     1  0.0000000  0.6276000  3
     15     14     17     19     1  0.0000000  0.6276000  3
     15     14     17     20     1  0.0000000  0.6694400  3
     14     17     20     21     1  0.0000000  0.6694400  3
     14     17     20     22     1  0.0000000  0.6694400  3
     13     11     14     15     1  0.0000000  0.6276000  3
     13     11     14     16     1  0.0000000  0.6276000  3
     13     11     14     17     1  0.0000000  0.6694400  3
     12     11     14     15     1  0.0000000  0.6276000  3
     12     11     14     16     1  0.0000000  0.6276000  3
     12     11     14     17     1  0.0000000  0.6694400  3
     11     14     17     18     1  0.0000000  0.6694400  3
     11     14     17     19     1  0.0000000  0.6694400  3
     10      8     11     12     1  0.0000000  0.6276000  3
     10      8     11     13     1  0.0000000  0.6276000  3
     10      8     11     14     1  0.0000000  0.6694400  3
      9      8     11     12     1  0.0000000  0.6276000  3
      9      8     11     13     1  0.0000000  0.6276000  3
      9      8     11     14     1  0.0000000  0.6694400  3
      8     11     14     15     1  0.0000000  0.6694400  3
      8     11     14     16     1  0.0000000  0.6694400  3
      7      5      8      9     1  0.0000000  0.6276000  3
      7      5      8     10     1  0.0000000  0.6276000  3
      7      5      8     11     1  0.0000000  0.6694400  3
      6      5      8      9     1  0.0000000  0.6276000  3
      6      5      8     10     1  0.0000000  0.6276000  3
      6      5      8     11     1  0.0000000  0.6694400  3
      5      8     11     12     1  0.0000000  0.6694400  3
      5      8     11     13     1  0.0000000  0.6694400  3
      4      1      5      6     1  0.0000000  0.6276000  3
      4      1      5      7     1  0.0000000  0.6276000  3
      4      1      5      8     1  0.0000000  0.6694400  3
      3      1      5      6     1  0.0000000  0.6276000  3
      3      1      5      7     1  0.0000000  0.6276000  3
      3      1      5      8     1  0.0000000  0.6694400  3
      2      1      5      6     1  0.0000000  0.6276000  3
      2      1      5      7     1  0.0000000  0.6276000  3
      2      1      5      8     1  0.0000000  0.6694400  3
      1      5      8      9     1  0.0000000  0.6694400  3
      1      5      8     10     1  0.0000000  0.6694400  3
     66     65     67     68     1  0.0000000  3.3472000  1
     66     65     67     68     1  180.0000771  0.3347200  3
     66     65     67     69     1  0.0000000  3.3472000  1
     66     65     67     69     1  180.0000771  0.3347200  3
     65     67     70     71     1  0.0000000  0.6527040  3
     65     67     70     72     1  0.0000000  0.6527040  3
     64     65     67     68     1  180.0000771  0.0000000  2
     64     65     67     69     1  180.0000771  0.0000000  2
     61     60     59     62     1  0.0000000  2.2313272  3
     61     60     59     63     1  0.0000000  2.2313272  3
     58     59     60     61     1  0.0000000  2.2313272  3
     57     55     53     64     1  0.0000000  1.0460000  1
     57     55     53     64     1  0.0000000  0.0000000  3
     57     55     58     59     1  0.0000000  0.0000000  1
     57     55     58     59     1  0.0000000  0.0000000  2
     57     55     58     59     1  0.0000000  1.6024720  3
     57     55     58     59     1  0.0000000  0.0000000  4
     57     55     58     59     1  0.0000000  0.0000000  5
     56     55     53     64     1  0.0000000  1.0460000  1
     56     55     53     64     1  0.0000000  0.0000000  3
     56     55     58     59     1  0.0000000  0.0000000  1
     56     55     58     59     1  0.0000000  0.0000000  2
     56     55     58     59     1  0.0000000  1.6024720  3
     56     55     58     59     1  0.0000000  0.0000000  4
     56     55     58     59     1  0.0000000  0.0000000  5
     54     53     55     56     1  0.0000000  0.6527040  3
     54     53     55     57     1  0.0000000  0.6527040  3
     54     53     55     58     1  0.0000000  1.0460000  1
     54     53     55     58     1  0.0000000  0.0000000  3
     54     53     64     65     1  0.0000000  1.6024720  3
     52     50     53     54     1  0.0000000  0.6527040  3
     52     50     53     55     1  0.0000000  0.6527040  3
     52     50     53     64     1  0.0000000  1.0460000  1
     52     50     53     64     1  0.0000000  0.0000000  3
     51     50     53     54     1  0.0000000  0.6527040  3
     51     50     53     55     1  0.0000000  0.6527040  3
     51     50     53     64     1  0.0000000  1.0460000  1
     51     50     53     64     1  0.0000000  0.0000000  3
     50     53     55     56     1  0.0000000  0.6527040  3
     50     53     55     57     1  0.0000000  0.6527040  3
     49     50     53     54     1  0.0000000  1.0460000  1
     49     50     53     54     1  0.0000000  0.0000000  3
     47     49     50     51     1  0.0000000  1.6024720  3
     47     49     50     52     1  0.0000000  1.6024720  3
    112    110    113    114     1  0.0000000  0.6276000  3
    112    110    113    115     1  0.0000000  0.6276000  3
    112    110    113    116     1  0.0000000  0.6276000  3
    111    110    113    114     1  0.0000000  0.6276000  3
    111    110    113    115     1  0.0000000  0.6276000  3
    111    110    113    116     1  0.0000000  0.6276000  3
    109    107    110    111     1  0.0000000  0.6276000  3
    109    107    110    112     1  0.0000000  0.6276000  3
    109    107    110    113     1  0.0000000  0.6694400  3
    108    107    110    111     1  0.0000000  0.6276000  3
    108    107    110    112     1  0.0000000  0.6276000  3
    108    107    110    113     1  0.0000000  0.6694400  3
    107    110    113    114     1  0.0000000  0.6694400  3
    107    110    113    115     1  0.0000000  0.6694400  3
    107    110    113    116     1  0.0000000  0.6694400  3
    106    104    107    108     1  0.0000000  0.6276000  3
    106    104    107    109     1  0.0000000  0.6276000  3
    106    104    107    110     1  0.0000000  0.6694400  3
    105    104    107    108     1  0.0000000  0.6276000  3
    105    104    107    109     1  0.0000000  0.6276000  3
    105    104    107    110     1  0.0000000  0.6694400  3
    104    107    110    111     1  0.0000000  0.6694400  3
    104    107    110    112     1  0.0000000  0.6694400  3
    103    101    104    105     1  0.0000000  0.6276000  3
    103    101    104    106     1  0.0000000  0.6276000  3
    103    101    104    107     1  0.0000000  0.6694400  3
    102    101    104    105     1  0.0000000  0.6276000  3
    102    101    104    106     1  0.0000000  0.6276000  3
    102    101    104    107     1  0.0000000  0.6694400  3
    101    104    107    108     1  0.0000000  0.6694400  3
    101    104    107    109     1  0.0000000  0.6694400  3
    100     98    101    102     1  0.0000000  0.6276000  3
    100     98    101    103     1  0.0000000  0.6276000  3
    100     98    101    104     1  0.0000000  0.6694400  3
     99     98    101    102     1  0.0000000  0.6276000  3
     99     98    101    103     1  0.0000000  0.6276000  3
     99     98    101    104     1  0.0000000  0.6694400  3
     98    101    104    105     1  0.0000000  0.6694400  3
     98    101    104    106     1  0.0000000  0.6694400  3
     97     95     98     99     1  0.0000000  0.6276000  3
     97     95     98    100     1  0.0000000  0.6276000  3
     97     95     98    101     1  0.0000000  0.6694400  3
     96     95     98     99     1  0.0000000  0.6276000  3
     96     95     98    100     1  0.0000000  0.6276000  3
     96     95     98    101     1  0.0000000  0.6694400  3
     95     98    101    102     1  0.0000000  0.6694400  3
     95     98    101    103     1  0.0000000  0.6694400  3
     94     92     95     96     1  0.0000000  0.6276000  3
     94     92     95     97     1  0.0000000  0.6276000  3
     94     92     95     98     1  0.0000000  0.6694400  3
     93     92     95     96     1  0.0000000  0.6276000  3
     93     92     95     97     1  0.0000000  0.6276000  3
     93     92     95     98     1  0.0000000  0.6694400  3
     92     95     98     99     1  0.0000000  0.6694400  3
     92     95     98    100     1  0.0000000  0.6694400  3
     91     90     92     93     1  0.0000000  0.0000000  2
     91     90     92     94     1  0.0000000  0.0000000  2
     91     90     92     95     1  0.0000000  0.0000000  2
     90     92     95     96     1  0.0000000  0.6510304  3
     90     92     95     97     1  0.0000000  0.6510304  3
     89     88     90     91     1  180.0000771  27.8236000  2
     89     88     90     92     1  180.0000771  27.8236000  2
     88     90     92     93     1  0.0000000  4.8116000  1
     88     90     92     93     1  180.0000771  1.5899200  3
     88     90     92     94     1  0.0000000  4.8116000  1
     88     90     92     94     1  180.0000771  1.5899200  3
     87     85     88     89     1  0.0000000  0.0000000  2
     87     85     88     90     1  0.0000000  4.8116000  1
     87     85     88     90     1  180.0000771  1.5899200  3
     86     85     88     89     1  0.0000000  0.0000000  2
     86     85     88     90     1  0.0000000  4.8116000  1
     86     85     88     90     1  180.0000771  1.5899200  3
     85     88     90     91     1  180.0000771  27.8236000  2
     84     82     85     86     1  0.0000000  0.6276000  3
     84     82     85     87     1  0.0000000  0.6276000  3
     84     82     85     88     1  0.0000000  0.6510304  3
     83     82     85     86     1  0.0000000  0.6276000  3
     83     82     85     87     1  0.0000000  0.6276000  3
     83     82     85     88     1  0.0000000  0.6510304  3
     82     85     88     89     1  0.0000000  0.0000000  2
     81     79     82     83     1  0.0000000  0.6276000  3
     81     79     82     84     1  0.0000000  0.6276000  3
     81     79     82     85     1  0.0000000  0.6694400  3
     80     79     82     83     1  0.0000000  0.6276000  3
     80     79     82     84     1  0.0000000  0.6276000  3
     80     79     82     85     1  0.0000000  0.6694400  3
     79     82     85     86     1  0.0000000  0.6694400  3
     79     82     85     87     1  0.0000000  0.6694400  3
     78     76     79     80     1  0.0000000  0.6276000  3
     78     76     79     81     1  0.0000000  0.6276000  3
     78     76     79     82     1  0.0000000  0.6694400  3
     77     76     79     80     1  0.0000000  0.6276000  3
     77     76     79     81     1  0.0000000  0.6276000  3
     77     76     79     82     1  0.0000000  0.6694400  3
     76     79     82     83     1  0.0000000  0.6694400  3
     76     79     82     84     1  0.0000000  0.6694400  3
     75     73     76     77     1  0.0000000  0.6276000  3
     75     73     76     78     1  0.0000000  0.6276000  3
     75     73     76     79     1  0.0000000  0.6694400  3
     74     73     76     77     1  0.0000000  0.6276000  3
     74     73     76     78     1  0.0000000  0.6276000  3
     74     73     76     79     1  0.0000000  0.6694400  3
     73     76     79     80     1  0.0000000  0.6694400  3
     73     76     79     81     1  0.0000000  0.6694400  3
     72     70     73     74     1  0.0000000  0.6276000  3
     72     70     73     75     1  0.0000000  0.6276000  3
     72     70     73     76     1  0.0000000  0.6694400  3
     71     70     73     74     1  0.0000000  0.6276000  3
     71     70     73     75     1  0.0000000  0.6276000  3
     71     70     73     76     1  0.0000000  0.6694400  3
     70     73     76     77     1  0.0000000  0.6694400  3
     70     73     76     78     1  0.0000000  0.6694400  3
     69     67     70     71     1  0.0000000  0.6276000  3
     69     67     70     72     1  0.0000000  0.6276000  3
     69     67     70     73     1  0.0000000  0.6694400  3
     68     67     70     71     1  0.0000000  0.6276000  3
     68     67     70     72     1  0.0000000  0.6276000  3
     68     67     70     73     1  0.0000000  0.6694400  3
     67     70     73     74     1  0.0000000  0.6694400  3
     67     70     73     75     1  0.0000000  0.6694400  3
     88     92     90     91     4  180.0000771  4.6024000  2
     90     85     88     89     4  180.0000771  4.6024000  2
