; Exact Amber Lipid21 v1.0 topology converted by ParmEd
; Explicit [pairs] preserve Lipid21-specific 1-4 scaling.

[ moleculetype ]
; Name nrexcl
POPE 3

[ atoms ]
; nr type resnr residue atom cgnr charge mass
1 L21_cD 1 POPE C16X 1 -0.12544700 12.010000
2 L21_hL 1 POPE H16X 2 0.02904700 1.008000
3 L21_hL 1 POPE H16Y 3 0.02904700 1.008000
4 L21_hL 1 POPE H16Z 4 0.02904700 1.008000
5 L21_cD 1 POPE C15X 5 0.01397500 12.010000
6 L21_hL 1 POPE H15X 6 0.00929200 1.008000
7 L21_hL 1 POPE H15Y 7 0.00929200 1.008000
8 L21_cD 1 POPE C14X 8 -0.02008600 12.010000
9 L21_hL 1 POPE H14X 9 0.01592900 1.008000
10 L21_hL 1 POPE H14Y 10 0.01592900 1.008000
11 L21_cD 1 POPE C13X 11 -0.03309600 12.010000
12 L21_hL 1 POPE H13X 12 0.01462100 1.008000
13 L21_hL 1 POPE H13Y 13 0.01462100 1.008000
14 L21_cD 1 POPE C12X 14 -0.02763300 12.010000
15 L21_hL 1 POPE H12X 15 0.01136800 1.008000
16 L21_hL 1 POPE H12Y 16 0.01136800 1.008000
17 L21_cD 1 POPE C11X 17 -0.02520600 12.010000
18 L21_hL 1 POPE H11X 18 0.01433400 1.008000
19 L21_hL 1 POPE H11Y 19 0.01433400 1.008000
20 L21_cD 1 POPE C10X 20 -0.02883100 12.010000
21 L21_hL 1 POPE H10X 21 0.01469100 1.008000
22 L21_hL 1 POPE H10Y 22 0.01469100 1.008000
23 L21_cD 1 POPE C9X 23 -0.03047200 12.010000
24 L21_hL 1 POPE H9X 24 0.01389700 1.008000
25 L21_hL 1 POPE H9Y 25 0.01389700 1.008000
26 L21_cD 1 POPE C8X 26 -0.01579300 12.010000
27 L21_hL 1 POPE H8X 27 0.00906700 1.008000
28 L21_hL 1 POPE H8Y 28 0.00906700 1.008000
29 L21_cD 1 POPE C7X 29 -0.01963000 12.010000
30 L21_hL 1 POPE H7X 30 0.01104100 1.008000
31 L21_hL 1 POPE H7Y 31 0.01104100 1.008000
32 L21_cD 1 POPE C6X 32 -0.02442700 12.010000
33 L21_hL 1 POPE H6X 33 0.01333400 1.008000
34 L21_hL 1 POPE H6Y 34 0.01333400 1.008000
35 L21_cD 1 POPE C5X 35 -0.02938700 12.010000
36 L21_hL 1 POPE H5X 36 0.01676300 1.008000
37 L21_hL 1 POPE H5Y 37 0.01676300 1.008000
38 L21_cD 1 POPE C4X 38 -0.03009900 12.010000
39 L21_hL 1 POPE H4X 39 0.02087700 1.008000
40 L21_hL 1 POPE H4Y 40 0.02087700 1.008000
41 L21_cD 1 POPE C3X 41 -0.00488200 12.010000
42 L21_hL 1 POPE H3X 42 0.01900700 1.008000
43 L21_hL 1 POPE H3Y 43 0.01900700 1.008000
44 L21_cD 1 POPE C2X 44 -0.14925900 12.010000
45 L21_hL 1 POPE H2X 45 0.04734500 1.008000
46 L21_hL 1 POPE H2Y 46 0.04734500 1.008000
47 L21_cC 1 POPE C11 47 0.88835900 12.010000
48 L21_oC 1 POPE O12 48 -0.65080200 16.000000
49 L21_oS 1 POPE O11 49 -0.59382600 16.000000
50 L21_cA 1 POPE C1 50 0.27377600 12.010000
51 L21_hE 1 POPE HR 51 0.04457400 1.008000
52 L21_hE 1 POPE HS 52 0.04457400 1.008000
53 L21_cA 1 POPE C2 53 0.33900400 12.010000
54 L21_hE 1 POPE HX 54 0.03284300 1.008000
55 L21_cA 1 POPE C3 55 0.04096700 12.010000
56 L21_hE 1 POPE HA 56 0.09099400 1.008000
57 L21_hE 1 POPE HB 57 0.09099400 1.008000
58 L21_oT 1 POPE O31 58 -0.54662300 16.000000
59 L21_pA 1 POPE P31 59 1.37365600 30.970000
60 L21_oT 1 POPE O32 60 -0.51454200 16.000000
61 L21_cA 1 POPE C31 61 0.07515900 12.010000
62 L21_hE 1 POPE H1A 62 0.09151600 1.008000
63 L21_hE 1 POPE H1B 63 0.09151600 1.008000
64 L21_cA 1 POPE C32 64 0.07731900 12.010000
65 L21_hX 1 POPE H2A 65 0.09163000 1.008000
66 L21_hX 1 POPE H2B 66 0.09163000 1.008000
67 L21_nA 1 POPE N31 67 -0.36813200 14.010000
68 L21_hN 1 POPE HN1A 68 0.34854900 1.008000
69 L21_hN 1 POPE HN1B 69 0.34854900 1.008000
70 L21_hN 1 POPE HN1C 70 0.34854900 1.008000
71 L21_oP 1 POPE O33 71 -0.87744700 16.000000
72 L21_oP 1 POPE O34 72 -0.87744700 16.000000
73 L21_oS 1 POPE O21 73 -0.57548000 16.000000
74 L21_cC 1 POPE C21 74 0.86934000 12.010000
75 L21_oC 1 POPE O22 75 -0.64919900 16.000000
76 L21_cD 1 POPE C2Y 76 -0.14341800 12.010000
77 L21_hL 1 POPE H2U 77 0.04286100 1.008000
78 L21_hL 1 POPE H2V 78 0.04286100 1.008000
79 L21_cD 1 POPE C3Y 79 0.00161900 12.010000
80 L21_hL 1 POPE H3U 80 0.01952900 1.008000
81 L21_hL 1 POPE H3V 81 0.01952900 1.008000
82 L21_cD 1 POPE C4Y 82 -0.02296000 12.010000
83 L21_hL 1 POPE H4U 83 0.01813400 1.008000
84 L21_hL 1 POPE H4V 84 0.01813400 1.008000
85 L21_cD 1 POPE C5Y 85 -0.01669200 12.010000
86 L21_hL 1 POPE H5U 86 0.00869000 1.008000
87 L21_hL 1 POPE H5V 87 0.00869000 1.008000
88 L21_cD 1 POPE C6Y 88 -0.02378900 12.010000
89 L21_hL 1 POPE H6U 89 0.00926600 1.008000
90 L21_hL 1 POPE H6V 90 0.00926600 1.008000
91 L21_cD 1 POPE C7Y 91 -0.01749500 12.010000
92 L21_hL 1 POPE H7U 92 0.01959800 1.008000
93 L21_hL 1 POPE H7V 93 0.01959800 1.008000
94 L21_cD 1 POPE C8Y 94 0.03177500 12.010000
95 L21_hL 1 POPE H8U 95 0.03268500 1.008000
96 L21_hL 1 POPE H8V 96 0.03268500 1.008000
97 L21_cB 1 POPE C9Y 97 -0.24422800 12.010000
98 L21_hB 1 POPE H9U 98 0.13151200 1.008000
99 L21_cB 1 POPE C10Y 99 -0.23928400 12.010000
100 L21_hB 1 POPE H10U 100 0.12687800 1.008000
101 L21_cD 1 POPE C11Y 101 0.02905900 12.010000
102 L21_hL 1 POPE H11U 102 0.03353100 1.008000
103 L21_hL 1 POPE H11V 103 0.03353100 1.008000
104 L21_cD 1 POPE C12Y 104 -0.02635300 12.010000
105 L21_hL 1 POPE H12U 105 0.01971700 1.008000
106 L21_hL 1 POPE H12V 106 0.01971700 1.008000
107 L21_cD 1 POPE C13Y 107 -0.01825700 12.010000
108 L21_hL 1 POPE H13U 108 0.01380000 1.008000
109 L21_hL 1 POPE H13V 109 0.01380000 1.008000
110 L21_cD 1 POPE C14Y 110 -0.02484900 12.010000
111 L21_hL 1 POPE H14U 111 0.00857200 1.008000
112 L21_hL 1 POPE H14V 112 0.00857200 1.008000
113 L21_cD 1 POPE C15Y 113 -0.02324700 12.010000
114 L21_hL 1 POPE H15U 114 0.01040300 1.008000
115 L21_hL 1 POPE H15V 115 0.01040300 1.008000
116 L21_cD 1 POPE C16Y 116 -0.01248800 12.010000
117 L21_hL 1 POPE H16U 117 0.01365900 1.008000
118 L21_hL 1 POPE H16V 118 0.01365900 1.008000
119 L21_cD 1 POPE C17Y 119 0.00868400 12.010000
120 L21_hL 1 POPE H17U 120 0.01002600 1.008000
121 L21_hL 1 POPE H17V 121 0.01002600 1.008000
122 L21_cD 1 POPE C18Y 122 -0.11729000 12.010000
123 L21_hL 1 POPE H18U 123 0.02662700 1.008000
124 L21_hL 1 POPE H18V 124 0.02662700 1.008000
125 L21_hL 1 POPE H18W 125 0.02662700 1.008000

[ bonds ]
;    ai     aj funct         c0         c1         c2         c3
     44     47     1   0.15080 274721.440000
     41     44     1   0.15350 253634.080000
     38     41     1   0.15350 253634.080000
     35     38     1   0.15350 253634.080000
     32     35     1   0.15350 253634.080000
     29     32     1   0.15350 253634.080000
     26     29     1   0.15350 253634.080000
     23     26     1   0.15350 253634.080000
     20     23     1   0.15350 253634.080000
     17     20     1   0.15350 253634.080000
     14     17     1   0.15350 253634.080000
     11     14     1   0.15350 253634.080000
      8     11     1   0.15350 253634.080000
      5      8     1   0.15350 253634.080000
      1      5     1   0.15350 253634.080000
     74     75     1   0.12140 542246.400000
     74     76     1   0.15080 274721.440000
     73     74     1   0.13430 344175.840000
     64     67     1   0.14990 245684.480000
     61     64     1   0.15350 253634.080000
     60     61     1   0.14390 252295.200000
     59     60     1   0.16100 192464.000000
     59     71     1   0.14800 439320.000000
     59     72     1   0.14800 439320.000000
     58     59     1   0.16100 192464.000000
     55     58     1   0.14390 252295.200000
     53     55     1   0.15350 253634.080000
     53     73     1   0.14390 252295.200000
     50     53     1   0.15350 253634.080000
     49     50     1   0.14390 252295.200000
     47     48     1   0.12140 542246.400000
     47     49     1   0.13430 344175.840000
    119    122     1   0.15350 253634.080000
    116    119     1   0.15350 253634.080000
    113    116     1   0.15350 253634.080000
    110    113     1   0.15350 253634.080000
    107    110     1   0.15350 253634.080000
    104    107     1   0.15350 253634.080000
    101    104     1   0.15350 253634.080000
     99    101     1   0.15080 274721.440000
     97     99     1   0.13240 493460.960000
     94     97     1   0.15080 274721.440000
     91     94     1   0.15350 253634.080000
     88     91     1   0.15350 253634.080000
     85     88     1   0.15350 253634.080000
     82     85     1   0.15350 253634.080000
     79     82     1   0.15350 253634.080000
     76     79     1   0.15350 253634.080000
     44     45     1   0.10920 282252.640000
     44     46     1   0.10920 282252.640000
     41     42     1   0.10920 282252.640000
     41     43     1   0.10920 282252.640000
     38     39     1   0.10920 282252.640000
     38     40     1   0.10920 282252.640000
     35     36     1   0.10920 282252.640000
     35     37     1   0.10920 282252.640000
     32     33     1   0.10920 282252.640000
     32     34     1   0.10920 282252.640000
     29     30     1   0.10920 282252.640000
     29     31     1   0.10920 282252.640000
     26     27     1   0.10920 282252.640000
     26     28     1   0.10920 282252.640000
     23     24     1   0.10920 282252.640000
     23     25     1   0.10920 282252.640000
     20     21     1   0.10920 282252.640000
     20     22     1   0.10920 282252.640000
     17     18     1   0.10920 282252.640000
     17     19     1   0.10920 282252.640000
     14     15     1   0.10920 282252.640000
     14     16     1   0.10920 282252.640000
     11     12     1   0.10920 282252.640000
     11     13     1   0.10920 282252.640000
      8      9     1   0.10920 282252.640000
      8     10     1   0.10920 282252.640000
      5      6     1   0.10920 282252.640000
      5      7     1   0.10920 282252.640000
      1      2     1   0.10920 282252.640000
      1      3     1   0.10920 282252.640000
      1      4     1   0.10920 282252.640000
     67     68     1   0.10330 308779.200000
     67     69     1   0.10330 308779.200000
     67     70     1   0.10330 308779.200000
     64     65     1   0.10910 283424.160000
     64     66     1   0.10910 283424.160000
     61     62     1   0.10930 281081.120000
     61     63     1   0.10930 281081.120000
     55     56     1   0.10930 281081.120000
     55     57     1   0.10930 281081.120000
     53     54     1   0.10930 281081.120000
     50     51     1   0.10930 281081.120000
     50     52     1   0.10930 281081.120000
    122    123     1   0.10920 282252.640000
    122    124     1   0.10920 282252.640000
    122    125     1   0.10920 282252.640000
    119    120     1   0.10920 282252.640000
    119    121     1   0.10920 282252.640000
    116    117     1   0.10920 282252.640000
    116    118     1   0.10920 282252.640000
    113    114     1   0.10920 282252.640000
    113    115     1   0.10920 282252.640000
    110    111     1   0.10920 282252.640000
    110    112     1   0.10920 282252.640000
    107    108     1   0.10920 282252.640000
    107    109     1   0.10920 282252.640000
    104    105     1   0.10920 282252.640000
    104    106     1   0.10920 282252.640000
    101    102     1   0.10920 282252.640000
    101    103     1   0.10920 282252.640000
     99    100     1   0.10870 288110.240000
     97     98     1   0.10870 288110.240000
     94     95     1   0.10920 282252.640000
     94     96     1   0.10920 282252.640000
     91     92     1   0.10920 282252.640000
     91     93     1   0.10920 282252.640000
     88     89     1   0.10920 282252.640000
     88     90     1   0.10920 282252.640000
     85     86     1   0.10920 282252.640000
     85     87     1   0.10920 282252.640000
     82     83     1   0.10920 282252.640000
     82     84     1   0.10920 282252.640000
     79     80     1   0.10920 282252.640000
     79     81     1   0.10920 282252.640000
     76     77     1   0.10920 282252.640000
     76     78     1   0.10920 282252.640000


[ pairs ]
;    ai     aj funct         c0         c1         c2         c3
     44     50     1
     41     48     1
     41     49     1
     38     47     1
     35     44     1
     32     41     1
     29     38     1
     26     35     1
     23     32     1
     20     29     1
     17     26     1
     14     23     1
     11     20     1
      8     17     1
      5     14     1
      1     11     1
     75     79     1
     74     82     1
     73     79     1
     61     71     1
     61     72     1
     60     67     1
     59     64     1
     58     73     1
     58     61     1
     55     74     1
     55     60     1
     55     71     1
     55     72     1
     53     59     1
     53     75     1
     53     76     1
     50     58     1
     50     74     1
     49     55     1
     49     73     1
     48     50     1
     47     53     1
    113    122     1
    110    119     1
    107    116     1
    104    113     1
    101    110     1
     99    107     1
     97    104     1
     94    101     1
     91     99     1
     88     97     1
     85     94     1
     82     91     1
     79     88     1
     76     85     1
     46     48     1
     46     49     1
     45     48     1
     45     49     1
     43     45     1
     43     46     1
     43     47     1
     42     45     1
     42     46     1
     42     47     1
     40     42     1
     40     43     1
     40     44     1
     39     42     1
     39     43     1
     39     44     1
     38     45     1
     38     46     1
     37     39     1
     37     40     1
     37     41     1
     36     39     1
     36     40     1
     36     41     1
     35     42     1
     35     43     1
     34     36     1
     34     37     1
     34     38     1
     33     36     1
     33     37     1
     33     38     1
     32     39     1
     32     40     1
     31     33     1
     31     34     1
     31     35     1
     30     33     1
     30     34     1
     30     35     1
     29     36     1
     29     37     1
     28     30     1
     28     31     1
     28     32     1
     27     30     1
     27     31     1
     27     32     1
     26     33     1
     26     34     1
     25     27     1
     25     28     1
     25     29     1
     24     27     1
     24     28     1
     24     29     1
     23     30     1
     23     31     1
     22     24     1
     22     25     1
     22     26     1
     21     24     1
     21     25     1
     21     26     1
     20     27     1
     20     28     1
     19     21     1
     19     22     1
     19     23     1
     18     21     1
     18     22     1
     18     23     1
     17     24     1
     17     25     1
     16     18     1
     16     19     1
     16     20     1
     15     18     1
     15     19     1
     15     20     1
     14     21     1
     14     22     1
     13     15     1
     13     16     1
     13     17     1
     12     15     1
     12     16     1
     12     17     1
     11     18     1
     11     19     1
     10     12     1
     10     13     1
     10     14     1
      9     12     1
      9     13     1
      9     14     1
      8     15     1
      8     16     1
      7      9     1
      7     10     1
      7     11     1
      6      9     1
      6     10     1
      6     11     1
      5     12     1
      5     13     1
      4      6     1
      4      7     1
      4      8     1
      3      6     1
      3      7     1
      3      8     1
      2      6     1
      2      7     1
      2      8     1
      1      9     1
      1     10     1
     75     77     1
     75     78     1
     74     80     1
     74     81     1
     73     77     1
     73     78     1
     66     68     1
     66     69     1
     66     70     1
     65     68     1
     65     69     1
     65     70     1
     63     65     1
     63     66     1
     63     67     1
     62     65     1
     62     66     1
     62     67     1
     61     68     1
     61     69     1
     61     70     1
     60     65     1
     60     66     1
     59     62     1
     59     63     1
     57     73     1
     57     59     1
     56     73     1
     56     59     1
     54     56     1
     54     57     1
     54     58     1
     54     74     1
     52     54     1
     52     55     1
     52     73     1
     51     54     1
     51     55     1
     51     73     1
     50     56     1
     50     57     1
     49     54     1
     47     51     1
     47     52     1
    121    123     1
    121    124     1
    121    125     1
    120    123     1
    120    124     1
    120    125     1
    118    120     1
    118    121     1
    118    122     1
    117    120     1
    117    121     1
    117    122     1
    116    123     1
    116    124     1
    116    125     1
    115    117     1
    115    118     1
    115    119     1
    114    117     1
    114    118     1
    114    119     1
    113    120     1
    113    121     1
    112    114     1
    112    115     1
    112    116     1
    111    114     1
    111    115     1
    111    116     1
    110    117     1
    110    118     1
    109    111     1
    109    112     1
    109    113     1
    108    111     1
    108    112     1
    108    113     1
    107    114     1
    107    115     1
    106    108     1
    106    109     1
    106    110     1
    105    108     1
    105    109     1
    105    110     1
    104    111     1
    104    112     1
    103    105     1
    103    106     1
    103    107     1
    102    105     1
    102    106     1
    102    107     1
    101    108     1
    101    109     1
    100    102     1
    100    103     1
    100    104     1
     99    105     1
     99    106     1
     98    100     1
     98    101     1
     97    102     1
     97    103     1
     96     98     1
     96     99     1
     95     98     1
     95     99     1
     94    100     1
     93     95     1
     93     96     1
     93     97     1
     92     95     1
     92     96     1
     92     97     1
     91     98     1
     90     92     1
     90     93     1
     90     94     1
     89     92     1
     89     93     1
     89     94     1
     88     95     1
     88     96     1
     87     89     1
     87     90     1
     87     91     1
     86     89     1
     86     90     1
     86     91     1
     85     92     1
     85     93     1
     84     86     1
     84     87     1
     84     88     1
     83     86     1
     83     87     1
     83     88     1
     82     89     1
     82     90     1
     81     83     1
     81     84     1
     81     85     1
     80     83     1
     80     84     1
     80     85     1
     79     86     1
     79     87     1
     78     80     1
     78     81     1
     78     82     1
     77     80     1
     77     81     1
     77     82     1
     76     83     1
     76     84     1


[ angles ]
;    ai     aj     ak funct         c0         c1         c2         c3
     44     47     48     1   123.1100526 569.275040
     44     47     49     1   111.9600481 579.567680
     41     44     47     1   110.5300474 533.794720
     38     41     44     1   112.0500483 394.969600
     35     38     41     1   112.0500483 394.969600
     32     35     38     1   112.0500483 394.969600
     29     32     35     1   112.0500483 394.969600
     26     29     32     1   112.0500483 394.969600
     23     26     29     1   112.0500483 394.969600
     20     23     26     1   112.0500483 394.969600
     17     20     23     1   112.0500483 394.969600
     14     17     20     1   112.0500483 394.969600
     11     14     17     1   112.0500483 394.969600
      8     11     14     1   112.0500483 394.969600
      5      8     11     1   112.0500483 394.969600
      1      5      8     1   112.0500483 394.969600
     75     74     76     1   123.1100526 569.275040
     74     76     79     1   110.5300474 533.794720
     73     74     75     1   123.3300529 635.382240
     73     74     76     1   111.9600481 579.567680
     71     59     72     1   119.9000514 1171.520000
     61     64     67     1   114.3200492 539.317600
     60     59     71     1   108.2300464 836.800000
     60     59     72     1   108.2300464 836.800000
     60     61     64     1   108.4200467 567.183040
     59     60     61     1   120.5000516 836.800000
     58     59     60     1   102.6000440 753.120000
     58     59     71     1   108.2300464 836.800000
     58     59     72     1   108.2300464 836.800000
     55     53     73     1   108.4200467 567.183040
     55     58     59     1   120.5000516 836.800000
     53     55     58     1   108.4200467 567.183040
     53     73     74     1   115.1400492 532.455840
     50     53     55     1   110.6300475 528.941280
     50     53     73     1   108.4200467 567.183040
     49     50     53     1   108.4200467 567.183040
     48     47     49     1   123.3300529 635.382240
     47     49     50     1   115.1400492 532.455840
    116    119    122     1   112.0500483 394.969600
    113    116    119     1   112.0500483 394.969600
    110    113    116     1   112.0500483 394.969600
    107    110    113     1   112.0500483 394.969600
    104    107    110     1   112.0500483 394.969600
    101    104    107     1   112.0500483 394.969600
     99    101    104     1   111.4400476 531.619040
     97     99    101     1   123.4200531 538.313440
     94     97     99     1   123.4200531 538.313440
     91     94     97     1   111.4400476 531.619040
     88     91     94     1   112.0500483 394.969600
     85     88     91     1   112.0500483 394.969600
     82     85     88     1   112.0500483 394.969600
     79     82     85     1   112.0500483 394.969600
     76     79     82     1   112.0500483 394.969600
     46     44     47     1   109.6800468 394.969600
     45     44     46     1   108.3500467 329.950240
     45     44     47     1   109.6800468 394.969600
     43     41     44     1   110.0500475 388.024160
     42     41     43     1   108.3500467 329.950240
     42     41     44     1   110.0500475 388.024160
     41     44     45     1   110.0500475 388.024160
     41     44     46     1   110.0500475 388.024160
     40     38     41     1   110.0500475 388.024160
     39     38     40     1   108.3500467 329.950240
     39     38     41     1   110.0500475 388.024160
     38     41     42     1   110.0500475 388.024160
     38     41     43     1   110.0500475 388.024160
     37     35     38     1   110.0500475 388.024160
     36     35     37     1   108.3500467 329.950240
     36     35     38     1   110.0500475 388.024160
     35     38     39     1   110.0500475 388.024160
     35     38     40     1   110.0500475 388.024160
     34     32     35     1   110.0500475 388.024160
     33     32     34     1   108.3500467 329.950240
     33     32     35     1   110.0500475 388.024160
     32     35     36     1   110.0500475 388.024160
     32     35     37     1   110.0500475 388.024160
     31     29     32     1   110.0500475 388.024160
     30     29     31     1   108.3500467 329.950240
     30     29     32     1   110.0500475 388.024160
     29     32     33     1   110.0500475 388.024160
     29     32     34     1   110.0500475 388.024160
     28     26     29     1   110.0500475 388.024160
     27     26     28     1   108.3500467 329.950240
     27     26     29     1   110.0500475 388.024160
     26     29     30     1   110.0500475 388.024160
     26     29     31     1   110.0500475 388.024160
     25     23     26     1   110.0500475 388.024160
     24     23     25     1   108.3500467 329.950240
     24     23     26     1   110.0500475 388.024160
     23     26     27     1   110.0500475 388.024160
     23     26     28     1   110.0500475 388.024160
     22     20     23     1   110.0500475 388.024160
     21     20     22     1   108.3500467 329.950240
     21     20     23     1   110.0500475 388.024160
     20     23     24     1   110.0500475 388.024160
     20     23     25     1   110.0500475 388.024160
     19     17     20     1   110.0500475 388.024160
     18     17     19     1   108.3500467 329.950240
     18     17     20     1   110.0500475 388.024160
     17     20     21     1   110.0500475 388.024160
     17     20     22     1   110.0500475 388.024160
     16     14     17     1   110.0500475 388.024160
     15     14     16     1   108.3500467 329.950240
     15     14     17     1   110.0500475 388.024160
     14     17     18     1   110.0500475 388.024160
     14     17     19     1   110.0500475 388.024160
     13     11     14     1   110.0500475 388.024160
     12     11     13     1   108.3500467 329.950240
     12     11     14     1   110.0500475 388.024160
     11     14     15     1   110.0500475 388.024160
     11     14     16     1   110.0500475 388.024160
     10      8     11     1   110.0500475 388.024160
      9      8     10     1   108.3500467 329.950240
      9      8     11     1   110.0500475 388.024160
      8     11     12     1   110.0500475 388.024160
      8     11     13     1   110.0500475 388.024160
      7      5      8     1   110.0500475 388.024160
      6      5      7     1   108.3500467 329.950240
      6      5      8     1   110.0500475 388.024160
      5      8      9     1   110.0500475 388.024160
      5      8     10     1   110.0500475 388.024160
      4      1      5     1   110.0500475 388.024160
      3      1      4     1   108.3500467 329.950240
      3      1      5     1   110.0500475 388.024160
      2      1      3     1   108.3500467 329.950240
      2      1      4     1   108.3500467 329.950240
      2      1      5     1   110.0500475 388.024160
      1      5      6     1   110.0500475 388.024160
      1      5      7     1   110.0500475 388.024160
     74     76     77     1   109.6800468 394.969600
     74     76     78     1   109.6800468 394.969600
     69     67     70     1   108.1100462 339.071360
     68     67     69     1   108.1100462 339.071360
     68     67     70     1   108.1100462 339.071360
     66     64     67     1   107.9100461 410.199360
     65     64     66     1   110.7400473 326.686720
     65     64     67     1   107.9100461 410.199360
     64     67     68     1   110.1100470 386.517920
     64     67     69     1   110.1100470 386.517920
     64     67     70     1   110.1100470 386.517920
     63     61     64     1   110.0700471 387.940480
     62     61     63     1   109.5500472 327.858240
     62     61     64     1   110.0700471 387.940480
     61     64     65     1   111.7400478 385.095360
     61     64     66     1   111.7400478 385.095360
     60     61     62     1   108.8200469 425.429120
     60     61     63     1   108.8200469 425.429120
     57     55     58     1   108.8200469 425.429120
     56     55     57     1   109.5500472 327.858240
     56     55     58     1   108.8200469 425.429120
     54     53     55     1   110.0700471 387.940480
     54     53     73     1   108.8200469 425.429120
     53     55     56     1   110.0700471 387.940480
     53     55     57     1   110.0700471 387.940480
     52     50     53     1   110.0700471 387.940480
     51     50     52     1   109.5500472 327.858240
     51     50     53     1   110.0700471 387.940480
     50     53     54     1   110.0700471 387.940480
     49     50     51     1   108.8200469 425.429120
     49     50     52     1   108.8200469 425.429120
    124    122    125     1   108.3500467 329.950240
    123    122    124     1   108.3500467 329.950240
    123    122    125     1   108.3500467 329.950240
    121    119    122     1   110.0500475 388.024160
    120    119    121     1   108.3500467 329.950240
    120    119    122     1   110.0500475 388.024160
    119    122    123     1   110.0500475 388.024160
    119    122    124     1   110.0500475 388.024160
    119    122    125     1   110.0500475 388.024160
    118    116    119     1   110.0500475 388.024160
    117    116    118     1   108.3500467 329.950240
    117    116    119     1   110.0500475 388.024160
    116    119    120     1   110.0500475 388.024160
    116    119    121     1   110.0500475 388.024160
    115    113    116     1   110.0500475 388.024160
    114    113    115     1   108.3500467 329.950240
    114    113    116     1   110.0500475 388.024160
    113    116    117     1   110.0500475 388.024160
    113    116    118     1   110.0500475 388.024160
    112    110    113     1   110.0500475 388.024160
    111    110    112     1   108.3500467 329.950240
    111    110    113     1   110.0500475 388.024160
    110    113    114     1   110.0500475 388.024160
    110    113    115     1   110.0500475 388.024160
    109    107    110     1   110.0500475 388.024160
    108    107    109     1   108.3500467 329.950240
    108    107    110     1   110.0500475 388.024160
    107    110    111     1   110.0500475 388.024160
    107    110    112     1   110.0500475 388.024160
    106    104    107     1   110.0500475 388.024160
    105    104    106     1   108.3500467 329.950240
    105    104    107     1   110.0500475 388.024160
    104    107    108     1   110.0500475 388.024160
    104    107    109     1   110.0500475 388.024160
    103    101    104     1   110.0500475 388.024160
    102    101    103     1   108.3500467 329.950240
    102    101    104     1   110.0500475 388.024160
    101    104    105     1   110.0500475 388.024160
    101    104    106     1   110.0500475 388.024160
    100     99    101     1   117.3000503 382.082880
     99    101    102     1   110.4900475 393.547040
     99    101    103     1   110.4900475 393.547040
     98     97     99     1   120.9400517 418.734720
     97     99    100     1   120.9400517 418.734720
     96     94     97     1   110.4900475 393.547040
     95     94     96     1   108.3500467 329.950240
     95     94     97     1   110.4900475 393.547040
     94     97     98     1   117.3000503 382.082880
     93     91     94     1   110.0500475 388.024160
     92     91     93     1   108.3500467 329.950240
     92     91     94     1   110.0500475 388.024160
     91     94     95     1   110.0500475 388.024160
     91     94     96     1   110.0500475 388.024160
     90     88     91     1   110.0500475 388.024160
     89     88     90     1   108.3500467 329.950240
     89     88     91     1   110.0500475 388.024160
     88     91     92     1   110.0500475 388.024160
     88     91     93     1   110.0500475 388.024160
     87     85     88     1   110.0500475 388.024160
     86     85     87     1   108.3500467 329.950240
     86     85     88     1   110.0500475 388.024160
     85     88     89     1   110.0500475 388.024160
     85     88     90     1   110.0500475 388.024160
     84     82     85     1   110.0500475 388.024160
     83     82     84     1   108.3500467 329.950240
     83     82     85     1   110.0500475 388.024160
     82     85     86     1   110.0500475 388.024160
     82     85     87     1   110.0500475 388.024160
     81     79     82     1   110.0500475 388.024160
     80     79     81     1   108.3500467 329.950240
     80     79     82     1   110.0500475 388.024160
     79     82     83     1   110.0500475 388.024160
     79     82     84     1   110.0500475 388.024160
     78     76     79     1   110.0500475 388.024160
     77     76     78     1   108.3500467 329.950240
     77     76     79     1   110.0500475 388.024160
     76     79     80     1   110.0500475 388.024160
     76     79     81     1   110.0500475 388.024160


[ dihedrals ]
;    ai     aj     ak     al funct         c0         c1         c2         c3         c4         c5
     44     47     49     50     1  180.0000771  11.2968000  2
     41     44     47     48     1  180.0000771  0.0000000  2
     41     44     47     49     1  180.0000771  0.0000000  2
     38     41     44     47     1  0.0000000  0.6527040  3
     35     38     41     44     1  0.0000000  0.4184000  1
     35     38     41     44     1  0.0000000  0.4184000  2
     35     38     41     44     1  0.0000000  1.2552000  3
     35     38     41     44     1  0.0000000  0.4184000  4
     35     38     41     44     1  0.0000000  0.4184000  5
     32     35     38     41     1  0.0000000  0.4184000  1
     32     35     38     41     1  0.0000000  0.4184000  2
     32     35     38     41     1  0.0000000  1.2552000  3
     32     35     38     41     1  0.0000000  0.4184000  4
     32     35     38     41     1  0.0000000  0.4184000  5
     29     32     35     38     1  0.0000000  0.4184000  1
     29     32     35     38     1  0.0000000  0.4184000  2
     29     32     35     38     1  0.0000000  1.2552000  3
     29     32     35     38     1  0.0000000  0.4184000  4
     29     32     35     38     1  0.0000000  0.4184000  5
     26     29     32     35     1  0.0000000  0.4184000  1
     26     29     32     35     1  0.0000000  0.4184000  2
     26     29     32     35     1  0.0000000  1.2552000  3
     26     29     32     35     1  0.0000000  0.4184000  4
     26     29     32     35     1  0.0000000  0.4184000  5
     23     26     29     32     1  0.0000000  0.4184000  1
     23     26     29     32     1  0.0000000  0.4184000  2
     23     26     29     32     1  0.0000000  1.2552000  3
     23     26     29     32     1  0.0000000  0.4184000  4
     23     26     29     32     1  0.0000000  0.4184000  5
     20     23     26     29     1  0.0000000  0.4184000  1
     20     23     26     29     1  0.0000000  0.4184000  2
     20     23     26     29     1  0.0000000  1.2552000  3
     20     23     26     29     1  0.0000000  0.4184000  4
     20     23     26     29     1  0.0000000  0.4184000  5
     17     20     23     26     1  0.0000000  0.4184000  1
     17     20     23     26     1  0.0000000  0.4184000  2
     17     20     23     26     1  0.0000000  1.2552000  3
     17     20     23     26     1  0.0000000  0.4184000  4
     17     20     23     26     1  0.0000000  0.4184000  5
     14     17     20     23     1  0.0000000  0.4184000  1
     14     17     20     23     1  0.0000000  0.4184000  2
     14     17     20     23     1  0.0000000  1.2552000  3
     14     17     20     23     1  0.0000000  0.4184000  4
     14     17     20     23     1  0.0000000  0.4184000  5
     11     14     17     20     1  0.0000000  0.4184000  1
     11     14     17     20     1  0.0000000  0.4184000  2
     11     14     17     20     1  0.0000000  1.2552000  3
     11     14     17     20     1  0.0000000  0.4184000  4
     11     14     17     20     1  0.0000000  0.4184000  5
      8     11     14     17     1  0.0000000  0.4184000  1
      8     11     14     17     1  0.0000000  0.4184000  2
      8     11     14     17     1  0.0000000  1.2552000  3
      8     11     14     17     1  0.0000000  0.4184000  4
      8     11     14     17     1  0.0000000  0.4184000  5
      5      8     11     14     1  0.0000000  0.4184000  1
      5      8     11     14     1  0.0000000  0.4184000  2
      5      8     11     14     1  0.0000000  1.2552000  3
      5      8     11     14     1  0.0000000  0.4184000  4
      5      8     11     14     1  0.0000000  0.4184000  5
      1      5      8     11     1  0.0000000  0.4184000  1
      1      5      8     11     1  0.0000000  0.4184000  2
      1      5      8     11     1  0.0000000  1.2552000  3
      1      5      8     11     1  0.0000000  0.4184000  4
      1      5      8     11     1  0.0000000  0.4184000  5
     75     74     76     79     1  180.0000771  0.0000000  2
     74     76     79     82     1  0.0000000  0.6527040  3
     73     74     76     79     1  180.0000771  0.0000000  2
     61     60     59     71     1  0.0000000  0.0000000  1
     61     60     59     71     1  0.0000000  0.8368000  2
     61     60     59     71     1  0.0000000  0.0000000  3
     61     60     59     71     1  0.0000000  0.0000000  4
     61     60     59     71     1  0.0000000  0.0000000  5
     61     60     59     72     1  0.0000000  0.0000000  1
     61     60     59     72     1  0.0000000  0.8368000  2
     61     60     59     72     1  0.0000000  0.0000000  3
     61     60     59     72     1  0.0000000  0.0000000  4
     61     60     59     72     1  0.0000000  0.0000000  5
     60     61     64     67     1  0.0000000  4.1840000  3
     59     60     61     64     1  180.0000771  -3.3472000  2
     59     60     61     64     1  0.0000000  0.0000000  3
     58     55     53     73     1  0.0000000  0.0000000  1
     58     55     53     73     1  0.0000000  0.0000000  2
     58     55     53     73     1  0.0000000  0.0000000  3
     58     55     53     73     1  0.0000000  0.0000000  4
     58     55     53     73     1  0.0000000  0.0000000  5
     58     59     60     61     1  0.0000000  9.6232000  2
     58     59     60     61     1  0.0000000  2.5104000  3
     55     53     73     74     1  0.0000000  -0.4184000  1
     55     53     73     74     1  240.0001029  -1.2552000  2
     55     53     73     74     1  300.0001286  -0.8368000  3
     55     58     59     60     1  0.0000000  9.6232000  2
     55     58     59     60     1  0.0000000  2.5104000  3
     55     58     59     71     1  0.0000000  0.0000000  1
     55     58     59     71     1  0.0000000  0.8368000  2
     55     58     59     71     1  0.0000000  0.0000000  3
     55     58     59     71     1  0.0000000  0.0000000  4
     55     58     59     71     1  0.0000000  0.0000000  5
     55     58     59     72     1  0.0000000  0.0000000  1
     55     58     59     72     1  0.0000000  0.8368000  2
     55     58     59     72     1  0.0000000  0.0000000  3
     55     58     59     72     1  0.0000000  0.0000000  4
     55     58     59     72     1  0.0000000  0.0000000  5
     53     55     58     59     1  180.0000771  -3.3472000  2
     53     55     58     59     1  0.0000000  0.0000000  3
     53     73     74     75     1  180.0000771  5.8576000  1
     53     73     74     75     1  180.0000771  11.2968000  2
     53     73     74     76     1  180.0000771  11.2968000  2
     50     53     55     58     1  180.0000771  3.3472000  1
     50     53     55     58     1  120.0000514  0.8368000  2
     50     53     55     58     1  60.0000257  1.6736000  3
     50     53     73     74     1  0.0000000  -0.4184000  1
     50     53     73     74     1  240.0001029  -1.2552000  2
     50     53     73     74     1  300.0001286  -0.8368000  3
     49     50     53     55     1  0.0000000  0.0000000  1
     49     50     53     55     1  0.0000000  0.0000000  2
     49     50     53     55     1  0.0000000  0.0000000  3
     49     50     53     55     1  0.0000000  0.0000000  4
     49     50     53     55     1  0.0000000  0.0000000  5
     49     50     53     73     1  180.0000771  -0.4184000  1
     49     50     53     73     1  0.0000000  1.2552000  2
     49     50     53     73     1  0.0000000  4.1840000  3
     48     47     49     50     1  180.0000771  5.8576000  1
     48     47     49     50     1  180.0000771  11.2968000  2
     47     49     50     53     1  0.0000000  -0.4184000  1
     47     49     50     53     1  240.0001029  -1.2552000  2
     47     49     50     53     1  300.0001286  -0.8368000  3
    113    116    119    122     1  0.0000000  0.4184000  1
    113    116    119    122     1  0.0000000  0.4184000  2
    113    116    119    122     1  0.0000000  1.2552000  3
    113    116    119    122     1  0.0000000  0.4184000  4
    113    116    119    122     1  0.0000000  0.4184000  5
    110    113    116    119     1  0.0000000  0.4184000  1
    110    113    116    119     1  0.0000000  0.4184000  2
    110    113    116    119     1  0.0000000  1.2552000  3
    110    113    116    119     1  0.0000000  0.4184000  4
    110    113    116    119     1  0.0000000  0.4184000  5
    107    110    113    116     1  0.0000000  0.4184000  1
    107    110    113    116     1  0.0000000  0.4184000  2
    107    110    113    116     1  0.0000000  1.2552000  3
    107    110    113    116     1  0.0000000  0.4184000  4
    107    110    113    116     1  0.0000000  0.4184000  5
    104    107    110    113     1  0.0000000  0.4184000  1
    104    107    110    113     1  0.0000000  0.4184000  2
    104    107    110    113     1  0.0000000  1.2552000  3
    104    107    110    113     1  0.0000000  0.4184000  4
    104    107    110    113     1  0.0000000  0.4184000  5
    101    104    107    110     1  0.0000000  0.4184000  1
    101    104    107    110     1  0.0000000  0.4184000  2
    101    104    107    110     1  0.0000000  1.2552000  3
    101    104    107    110     1  0.0000000  0.4184000  4
    101    104    107    110     1  0.0000000  0.4184000  5
     99    101    104    107     1  0.0000000  0.0000000  1
     99    101    104    107     1  0.0000000  0.0000000  2
     99    101    104    107     1  0.0000000  2.0920000  3
     99    101    104    107     1  0.0000000  0.0000000  4
     99    101    104    107     1  0.0000000  0.4184000  5
     97     99    101    104     1  0.0000000  2.5104000  1
     97     99    101    104     1  180.0000771  1.6736000  2
     97     99    101    104     1  180.0000771  1.6736000  3
     97     99    101    104     1  180.0000771  0.8368000  4
     97     99    101    104     1  180.0000771  0.8368000  5
     94     97     99    101     1  180.0000771  7.1128000  1
     94     97     99    101     1  180.0000771  13.8072000  2
     94     97     99    101     1  0.0000000  2.5104000  3
     94     97     99    101     1  0.0000000  0.0000000  4
     94     97     99    101     1  0.0000000  0.0000000  5
     91     94     97     99     1  0.0000000  2.5104000  1
     91     94     97     99     1  180.0000771  1.6736000  2
     91     94     97     99     1  180.0000771  1.6736000  3
     91     94     97     99     1  180.0000771  0.8368000  4
     91     94     97     99     1  180.0000771  0.8368000  5
     88     91     94     97     1  0.0000000  0.0000000  1
     88     91     94     97     1  0.0000000  0.0000000  2
     88     91     94     97     1  0.0000000  2.0920000  3
     88     91     94     97     1  0.0000000  0.0000000  4
     88     91     94     97     1  0.0000000  0.4184000  5
     85     88     91     94     1  0.0000000  0.4184000  1
     85     88     91     94     1  0.0000000  0.4184000  2
     85     88     91     94     1  0.0000000  1.2552000  3
     85     88     91     94     1  0.0000000  0.4184000  4
     85     88     91     94     1  0.0000000  0.4184000  5
     82     85     88     91     1  0.0000000  0.4184000  1
     82     85     88     91     1  0.0000000  0.4184000  2
     82     85     88     91     1  0.0000000  1.2552000  3
     82     85     88     91     1  0.0000000  0.4184000  4
     82     85     88     91     1  0.0000000  0.4184000  5
     79     82     85     88     1  0.0000000  0.4184000  1
     79     82     85     88     1  0.0000000  0.4184000  2
     79     82     85     88     1  0.0000000  1.2552000  3
     79     82     85     88     1  0.0000000  0.4184000  4
     79     82     85     88     1  0.0000000  0.4184000  5
     76     79     82     85     1  0.0000000  0.4184000  1
     76     79     82     85     1  0.0000000  0.4184000  2
     76     79     82     85     1  0.0000000  1.2552000  3
     76     79     82     85     1  0.0000000  0.4184000  4
     76     79     82     85     1  0.0000000  0.4184000  5
     76     75     74     73     4  180.0000771  43.9320000  2
     44     48     47     49     4  180.0000771  43.9320000  2
     46     44     47     48     1  0.0000000  3.3472000  1
     46     44     47     48     1  180.0000771  0.3347200  3
     46     44     47     49     1  180.0000771  0.0000000  2
     45     44     47     48     1  0.0000000  3.3472000  1
     45     44     47     48     1  180.0000771  0.3347200  3
     45     44     47     49     1  180.0000771  0.0000000  2
     43     41     44     45     1  0.0000000  0.6276000  3
     43     41     44     46     1  0.0000000  0.6276000  3
     43     41     44     47     1  0.0000000  0.6527040  3
     42     41     44     45     1  0.0000000  0.6276000  3
     42     41     44     46     1  0.0000000  0.6276000  3
     42     41     44     47     1  0.0000000  0.6527040  3
     40     38     41     42     1  0.0000000  0.6276000  3
     40     38     41     43     1  0.0000000  0.6276000  3
     40     38     41     44     1  0.0000000  0.6694400  3
     39     38     41     42     1  0.0000000  0.6276000  3
     39     38     41     43     1  0.0000000  0.6276000  3
     39     38     41     44     1  0.0000000  0.6694400  3
     38     41     44     45     1  0.0000000  0.6694400  3
     38     41     44     46     1  0.0000000  0.6694400  3
     37     35     38     39     1  0.0000000  0.6276000  3
     37     35     38     40     1  0.0000000  0.6276000  3
     37     35     38     41     1  0.0000000  0.6694400  3
     36     35     38     39     1  0.0000000  0.6276000  3
     36     35     38     40     1  0.0000000  0.6276000  3
     36     35     38     41     1  0.0000000  0.6694400  3
     35     38     41     42     1  0.0000000  0.6694400  3
     35     38     41     43     1  0.0000000  0.6694400  3
     34     32     35     36     1  0.0000000  0.6276000  3
     34     32     35     37     1  0.0000000  0.6276000  3
     34     32     35     38     1  0.0000000  0.6694400  3
     33     32     35     36     1  0.0000000  0.6276000  3
     33     32     35     37     1  0.0000000  0.6276000  3
     33     32     35     38     1  0.0000000  0.6694400  3
     32     35     38     39     1  0.0000000  0.6694400  3
     32     35     38     40     1  0.0000000  0.6694400  3
     31     29     32     33     1  0.0000000  0.6276000  3
     31     29     32     34     1  0.0000000  0.6276000  3
     31     29     32     35     1  0.0000000  0.6694400  3
     30     29     32     33     1  0.0000000  0.6276000  3
     30     29     32     34     1  0.0000000  0.6276000  3
     30     29     32     35     1  0.0000000  0.6694400  3
     29     32     35     36     1  0.0000000  0.6694400  3
     29     32     35     37     1  0.0000000  0.6694400  3
     28     26     29     30     1  0.0000000  0.6276000  3
     28     26     29     31     1  0.0000000  0.6276000  3
     28     26     29     32     1  0.0000000  0.6694400  3
     27     26     29     30     1  0.0000000  0.6276000  3
     27     26     29     31     1  0.0000000  0.6276000  3
     27     26     29     32     1  0.0000000  0.6694400  3
     26     29     32     33     1  0.0000000  0.6694400  3
     26     29     32     34     1  0.0000000  0.6694400  3
     25     23     26     27     1  0.0000000  0.6276000  3
     25     23     26     28     1  0.0000000  0.6276000  3
     25     23     26     29     1  0.0000000  0.6694400  3
     24     23     26     27     1  0.0000000  0.6276000  3
     24     23     26     28     1  0.0000000  0.6276000  3
     24     23     26     29     1  0.0000000  0.6694400  3
     23     26     29     30     1  0.0000000  0.6694400  3
     23     26     29     31     1  0.0000000  0.6694400  3
     22     20     23     24     1  0.0000000  0.6276000  3
     22     20     23     25     1  0.0000000  0.6276000  3
     22     20     23     26     1  0.0000000  0.6694400  3
     21     20     23     24     1  0.0000000  0.6276000  3
     21     20     23     25     1  0.0000000  0.6276000  3
     21     20     23     26     1  0.0000000  0.6694400  3
     20     23     26     27     1  0.0000000  0.6694400  3
     20     23     26     28     1  0.0000000  0.6694400  3
     19     17     20     21     1  0.0000000  0.6276000  3
     19     17     20     22     1  0.0000000  0.6276000  3
     19     17     20     23     1  0.0000000  0.6694400  3
     18     17     20     21     1  0.0000000  0.6276000  3
     18     17     20     22     1  0.0000000  0.6276000  3
     18     17     20     23     1  0.0000000  0.6694400  3
     17     20     23     24     1  0.0000000  0.6694400  3
     17     20     23     25     1  0.0000000  0.6694400  3
     16     14     17     18     1  0.0000000  0.6276000  3
     16     14     17     19     1  0.0000000  0.6276000  3
     16     14     17     20     1  0.0000000  0.6694400  3
     15     14     17     18     1  0.0000000  0.6276000  3
     15     14     17     19     1  0.0000000  0.6276000  3
     15     14     17     20     1  0.0000000  0.6694400  3
     14     17     20     21     1  0.0000000  0.6694400  3
     14     17     20     22     1  0.0000000  0.6694400  3
     13     11     14     15     1  0.0000000  0.6276000  3
     13     11     14     16     1  0.0000000  0.6276000  3
     13     11     14     17     1  0.0000000  0.6694400  3
     12     11     14     15     1  0.0000000  0.6276000  3
     12     11     14     16     1  0.0000000  0.6276000  3
     12     11     14     17     1  0.0000000  0.6694400  3
     11     14     17     18     1  0.0000000  0.6694400  3
     11     14     17     19     1  0.0000000  0.6694400  3
     10      8     11     12     1  0.0000000  0.6276000  3
     10      8     11     13     1  0.0000000  0.6276000  3
     10      8     11     14     1  0.0000000  0.6694400  3
      9      8     11     12     1  0.0000000  0.6276000  3
      9      8     11     13     1  0.0000000  0.6276000  3
      9      8     11     14     1  0.0000000  0.6694400  3
      8     11     14     15     1  0.0000000  0.6694400  3
      8     11     14     16     1  0.0000000  0.6694400  3
      7      5      8      9     1  0.0000000  0.6276000  3
      7      5      8     10     1  0.0000000  0.6276000  3
      7      5      8     11     1  0.0000000  0.6694400  3
      6      5      8      9     1  0.0000000  0.6276000  3
      6      5      8     10     1  0.0000000  0.6276000  3
      6      5      8     11     1  0.0000000  0.6694400  3
      5      8     11     12     1  0.0000000  0.6694400  3
      5      8     11     13     1  0.0000000  0.6694400  3
      4      1      5      6     1  0.0000000  0.6276000  3
      4      1      5      7     1  0.0000000  0.6276000  3
      4      1      5      8     1  0.0000000  0.6694400  3
      3      1      5      6     1  0.0000000  0.6276000  3
      3      1      5      7     1  0.0000000  0.6276000  3
      3      1      5      8     1  0.0000000  0.6694400  3
      2      1      5      6     1  0.0000000  0.6276000  3
      2      1      5      7     1  0.0000000  0.6276000  3
      2      1      5      8     1  0.0000000  0.6694400  3
      1      5      8      9     1  0.0000000  0.6694400  3
      1      5      8     10     1  0.0000000  0.6694400  3
     75     74     76     77     1  0.0000000  3.3472000  1
     75     74     76     77     1  180.0000771  0.3347200  3
     75     74     76     78     1  0.0000000  3.3472000  1
     75     74     76     78     1  180.0000771  0.3347200  3
     74     76     79     80     1  0.0000000  0.6527040  3
     74     76     79     81     1  0.0000000  0.6527040  3
     73     74     76     77     1  180.0000771  0.0000000  2
     73     74     76     78     1  180.0000771  0.0000000  2
     66     64     67     68     1  0.0000000  0.6510304  3
     66     64     67     69     1  0.0000000  0.6510304  3
     66     64     67     70     1  0.0000000  0.6510304  3
     65     64     67     68     1  0.0000000  0.6510304  3
     65     64     67     69     1  0.0000000  0.6510304  3
     65     64     67     70     1  0.0000000  0.6510304  3
     63     61     64     65     1  0.0000000  0.6527040  3
     63     61     64     66     1  0.0000000  0.6527040  3
     63     61     64     67     1  0.0000000  0.6527040  3
     62     61     64     65     1  0.0000000  0.6527040  3
     62     61     64     66     1  0.0000000  0.6527040  3
     62     61     64     67     1  0.0000000  0.6527040  3
     61     64     67     68     1  0.0000000  0.6510304  3
     61     64     67     69     1  0.0000000  0.6510304  3
     61     64     67     70     1  0.0000000  0.6510304  3
     60     61     64     65     1  0.0000000  0.6527040  3
     60     61     64     66     1  0.0000000  0.6527040  3
     59     60     61     62     1  0.0000000  0.0000000  1
     59     60     61     62     1  0.0000000  0.0000000  2
     59     60     61     62     1  0.0000000  1.6024720  3
     59     60     61     62     1  0.0000000  0.0000000  4
     59     60     61     62     1  0.0000000  0.0000000  5
     59     60     61     63     1  0.0000000  0.0000000  1
     59     60     61     63     1  0.0000000  0.0000000  2
     59     60     61     63     1  0.0000000  1.6024720  3
     59     60     61     63     1  0.0000000  0.0000000  4
     59     60     61     63     1  0.0000000  0.0000000  5
     57     55     53     73     1  0.0000000  1.0460000  1
     57     55     53     73     1  0.0000000  0.0000000  3
     57     55     58     59     1  0.0000000  0.0000000  1
     57     55     58     59     1  0.0000000  0.0000000  2
     57     55     58     59     1  0.0000000  1.6024720  3
     57     55     58     59     1  0.0000000  0.0000000  4
     57     55     58     59     1  0.0000000  0.0000000  5
     56     55     53     73     1  0.0000000  1.0460000  1
     56     55     53     73     1  0.0000000  0.0000000  3
     56     55     58     59     1  0.0000000  0.0000000  1
     56     55     58     59     1  0.0000000  0.0000000  2
     56     55     58     59     1  0.0000000  1.6024720  3
     56     55     58     59     1  0.0000000  0.0000000  4
     56     55     58     59     1  0.0000000  0.0000000  5
     54     53     55     56     1  0.0000000  0.6527040  3
     54     53     55     57     1  0.0000000  0.6527040  3
     54     53     55     58     1  0.0000000  1.0460000  1
     54     53     55     58     1  0.0000000  0.0000000  3
     54     53     73     74     1  0.0000000  1.6024720  3
     52     50     53     54     1  0.0000000  0.6527040  3
     52     50     53     55     1  0.0000000  0.6527040  3
     52     50     53     73     1  0.0000000  1.0460000  1
     52     50     53     73     1  0.0000000  0.0000000  3
     51     50     53     54     1  0.0000000  0.6527040  3
     51     50     53     55     1  0.0000000  0.6527040  3
     51     50     53     73     1  0.0000000  1.0460000  1
     51     50     53     73     1  0.0000000  0.0000000  3
     50     53     55     56     1  0.0000000  0.6527040  3
     50     53     55     57     1  0.0000000  0.6527040  3
     49     50     53     54     1  0.0000000  1.0460000  1
     49     50     53     54     1  0.0000000  0.0000000  3
     47     49     50     51     1  0.0000000  1.6024720  3
     47     49     50     52     1  0.0000000  1.6024720  3
    121    119    122    123     1  0.0000000  0.6276000  3
    121    119    122    124     1  0.0000000  0.6276000  3
    121    119    122    125     1  0.0000000  0.6276000  3
    120    119    122    123     1  0.0000000  0.6276000  3
    120    119    122    124     1  0.0000000  0.6276000  3
    120    119    122    125     1  0.0000000  0.6276000  3
    118    116    119    120     1  0.0000000  0.6276000  3
    118    116    119    121     1  0.0000000  0.6276000  3
    118    116    119    122     1  0.0000000  0.6694400  3
    117    116    119    120     1  0.0000000  0.6276000  3
    117    116    119    121     1  0.0000000  0.6276000  3
    117    116    119    122     1  0.0000000  0.6694400  3
    116    119    122    123     1  0.0000000  0.6694400  3
    116    119    122    124     1  0.0000000  0.6694400  3
    116    119    122    125     1  0.0000000  0.6694400  3
    115    113    116    117     1  0.0000000  0.6276000  3
    115    113    116    118     1  0.0000000  0.6276000  3
    115    113    116    119     1  0.0000000  0.6694400  3
    114    113    116    117     1  0.0000000  0.6276000  3
    114    113    116    118     1  0.0000000  0.6276000  3
    114    113    116    119     1  0.0000000  0.6694400  3
    113    116    119    120     1  0.0000000  0.6694400  3
    113    116    119    121     1  0.0000000  0.6694400  3
    112    110    113    114     1  0.0000000  0.6276000  3
    112    110    113    115     1  0.0000000  0.6276000  3
    112    110    113    116     1  0.0000000  0.6694400  3
    111    110    113    114     1  0.0000000  0.6276000  3
    111    110    113    115     1  0.0000000  0.6276000  3
    111    110    113    116     1  0.0000000  0.6694400  3
    110    113    116    117     1  0.0000000  0.6694400  3
    110    113    116    118     1  0.0000000  0.6694400  3
    109    107    110    111     1  0.0000000  0.6276000  3
    109    107    110    112     1  0.0000000  0.6276000  3
    109    107    110    113     1  0.0000000  0.6694400  3
    108    107    110    111     1  0.0000000  0.6276000  3
    108    107    110    112     1  0.0000000  0.6276000  3
    108    107    110    113     1  0.0000000  0.6694400  3
    107    110    113    114     1  0.0000000  0.6694400  3
    107    110    113    115     1  0.0000000  0.6694400  3
    106    104    107    108     1  0.0000000  0.6276000  3
    106    104    107    109     1  0.0000000  0.6276000  3
    106    104    107    110     1  0.0000000  0.6694400  3
    105    104    107    108     1  0.0000000  0.6276000  3
    105    104    107    109     1  0.0000000  0.6276000  3
    105    104    107    110     1  0.0000000  0.6694400  3
    104    107    110    111     1  0.0000000  0.6694400  3
    104    107    110    112     1  0.0000000  0.6694400  3
    103    101    104    105     1  0.0000000  0.6276000  3
    103    101    104    106     1  0.0000000  0.6276000  3
    103    101    104    107     1  0.0000000  0.6694400  3
    102    101    104    105     1  0.0000000  0.6276000  3
    102    101    104    106     1  0.0000000  0.6276000  3
    102    101    104    107     1  0.0000000  0.6694400  3
    101    104    107    108     1  0.0000000  0.6694400  3
    101    104    107    109     1  0.0000000  0.6694400  3
    100     99    101    102     1  0.0000000  0.0000000  2
    100     99    101    103     1  0.0000000  0.0000000  2
    100     99    101    104     1  0.0000000  0.0000000  2
     99    101    104    105     1  0.0000000  0.6510304  3
     99    101    104    106     1  0.0000000  0.6510304  3
     98     97     99    100     1  180.0000771  27.8236000  2
     98     97     99    101     1  180.0000771  27.8236000  2
     97     99    101    102     1  0.0000000  4.8116000  1
     97     99    101    102     1  180.0000771  1.5899200  3
     97     99    101    103     1  0.0000000  4.8116000  1
     97     99    101    103     1  180.0000771  1.5899200  3
     96     94     97     98     1  0.0000000  0.0000000  2
     96     94     97     99     1  0.0000000  4.8116000  1
     96     94     97     99     1  180.0000771  1.5899200  3
     95     94     97     98     1  0.0000000  0.0000000  2
     95     94     97     99     1  0.0000000  4.8116000  1
     95     94     97     99     1  180.0000771  1.5899200  3
     94     97     99    100     1  180.0000771  27.8236000  2
     93     91     94     95     1  0.0000000  0.6276000  3
     93     91     94     96     1  0.0000000  0.6276000  3
     93     91     94     97     1  0.0000000  0.6510304  3
     92     91     94     95     1  0.0000000  0.6276000  3
     92     91     94     96     1  0.0000000  0.6276000  3
     92     91     94     97     1  0.0000000  0.6510304  3
     91     94     97     98     1  0.0000000  0.0000000  2
     90     88     91     92     1  0.0000000  0.6276000  3
     90     88     91     93     1  0.0000000  0.6276000  3
     90     88     91     94     1  0.0000000  0.6694400  3
     89     88     91     92     1  0.0000000  0.6276000  3
     89     88     91     93     1  0.0000000  0.6276000  3
     89     88     91     94     1  0.0000000  0.6694400  3
     88     91     94     95     1  0.0000000  0.6694400  3
     88     91     94     96     1  0.0000000  0.6694400  3
     87     85     88     89     1  0.0000000  0.6276000  3
     87     85     88     90     1  0.0000000  0.6276000  3
     87     85     88     91     1  0.0000000  0.6694400  3
     86     85     88     89     1  0.0000000  0.6276000  3
     86     85     88     90     1  0.0000000  0.6276000  3
     86     85     88     91     1  0.0000000  0.6694400  3
     85     88     91     92     1  0.0000000  0.6694400  3
     85     88     91     93     1  0.0000000  0.6694400  3
     84     82     85     86     1  0.0000000  0.6276000  3
     84     82     85     87     1  0.0000000  0.6276000  3
     84     82     85     88     1  0.0000000  0.6694400  3
     83     82     85     86     1  0.0000000  0.6276000  3
     83     82     85     87     1  0.0000000  0.6276000  3
     83     82     85     88     1  0.0000000  0.6694400  3
     82     85     88     89     1  0.0000000  0.6694400  3
     82     85     88     90     1  0.0000000  0.6694400  3
     81     79     82     83     1  0.0000000  0.6276000  3
     81     79     82     84     1  0.0000000  0.6276000  3
     81     79     82     85     1  0.0000000  0.6694400  3
     80     79     82     83     1  0.0000000  0.6276000  3
     80     79     82     84     1  0.0000000  0.6276000  3
     80     79     82     85     1  0.0000000  0.6694400  3
     79     82     85     86     1  0.0000000  0.6694400  3
     79     82     85     87     1  0.0000000  0.6694400  3
     78     76     79     80     1  0.0000000  0.6276000  3
     78     76     79     81     1  0.0000000  0.6276000  3
     78     76     79     82     1  0.0000000  0.6694400  3
     77     76     79     80     1  0.0000000  0.6276000  3
     77     76     79     81     1  0.0000000  0.6276000  3
     77     76     79     82     1  0.0000000  0.6694400  3
     76     79     82     83     1  0.0000000  0.6694400  3
     76     79     82     84     1  0.0000000  0.6694400  3
     97    101     99    100     4  180.0000771  4.6024000  2
     99     94     97     98     4  180.0000771  4.6024000  2
