; Exact Amber Lipid21 v1.0 topology converted by ParmEd
; Explicit [pairs] preserve Lipid21-specific 1-4 scaling.

[ moleculetype ]
; Name nrexcl
POPG 3

[ atoms ]
; nr type resnr residue atom cgnr charge mass
1 L21_cD 1 POPG C16X 1 -0.12544700 12.010000
2 L21_hL 1 POPG H16X 2 0.02904700 1.008000
3 L21_hL 1 POPG H16Y 3 0.02904700 1.008000
4 L21_hL 1 POPG H16Z 4 0.02904700 1.008000
5 L21_cD 1 POPG C15X 5 0.01397500 12.010000
6 L21_hL 1 POPG H15X 6 0.00929200 1.008000
7 L21_hL 1 POPG H15Y 7 0.00929200 1.008000
8 L21_cD 1 POPG C14X 8 -0.02008600 12.010000
9 L21_hL 1 POPG H14X 9 0.01592900 1.008000
10 L21_hL 1 POPG H14Y 10 0.01592900 1.008000
11 L21_cD 1 POPG C13X 11 -0.03309600 12.010000
12 L21_hL 1 POPG H13X 12 0.01462100 1.008000
13 L21_hL 1 POPG H13Y 13 0.01462100 1.008000
14 L21_cD 1 POPG C12X 14 -0.02763300 12.010000
15 L21_hL 1 POPG H12X 15 0.01136800 1.008000
16 L21_hL 1 POPG H12Y 16 0.01136800 1.008000
17 L21_cD 1 POPG C11X 17 -0.02520600 12.010000
18 L21_hL 1 POPG H11X 18 0.01433400 1.008000
19 L21_hL 1 POPG H11Y 19 0.01433400 1.008000
20 L21_cD 1 POPG C10X 20 -0.02883100 12.010000
21 L21_hL 1 POPG H10X 21 0.01469100 1.008000
22 L21_hL 1 POPG H10Y 22 0.01469100 1.008000
23 L21_cD 1 POPG C9X 23 -0.03047200 12.010000
24 L21_hL 1 POPG H9X 24 0.01389700 1.008000
25 L21_hL 1 POPG H9Y 25 0.01389700 1.008000
26 L21_cD 1 POPG C8X 26 -0.01579300 12.010000
27 L21_hL 1 POPG H8X 27 0.00906700 1.008000
28 L21_hL 1 POPG H8Y 28 0.00906700 1.008000
29 L21_cD 1 POPG C7X 29 -0.01963000 12.010000
30 L21_hL 1 POPG H7X 30 0.01104100 1.008000
31 L21_hL 1 POPG H7Y 31 0.01104100 1.008000
32 L21_cD 1 POPG C6X 32 -0.02442700 12.010000
33 L21_hL 1 POPG H6X 33 0.01333400 1.008000
34 L21_hL 1 POPG H6Y 34 0.01333400 1.008000
35 L21_cD 1 POPG C5X 35 -0.02938700 12.010000
36 L21_hL 1 POPG H5X 36 0.01676300 1.008000
37 L21_hL 1 POPG H5Y 37 0.01676300 1.008000
38 L21_cD 1 POPG C4X 38 -0.03009900 12.010000
39 L21_hL 1 POPG H4X 39 0.02087700 1.008000
40 L21_hL 1 POPG H4Y 40 0.02087700 1.008000
41 L21_cD 1 POPG C3X 41 -0.00488200 12.010000
42 L21_hL 1 POPG H3X 42 0.01900700 1.008000
43 L21_hL 1 POPG H3Y 43 0.01900700 1.008000
44 L21_cD 1 POPG C2X 44 -0.14925900 12.010000
45 L21_hL 1 POPG H2X 45 0.04734500 1.008000
46 L21_hL 1 POPG H2Y 46 0.04734500 1.008000
47 L21_cC 1 POPG C11 47 0.87700600 12.010000
48 L21_oC 1 POPG O12 48 -0.64926500 16.000000
49 L21_oS 1 POPG O11 49 -0.58516500 16.000000
50 L21_cA 1 POPG C1 50 0.29511900 12.010000
51 L21_hE 1 POPG HR 51 0.03379700 1.008000
52 L21_hE 1 POPG HS 52 0.03379700 1.008000
53 L21_cA 1 POPG C2 53 0.35380700 12.010000
54 L21_hE 1 POPG HX 54 0.03748800 1.008000
55 L21_cA 1 POPG C3 55 0.04371300 12.010000
56 L21_hE 1 POPG HA 56 0.09104100 1.008000
57 L21_hE 1 POPG HB 57 0.09104100 1.008000
58 L21_oT 1 POPG O31 58 -0.54609800 16.000000
59 L21_pA 1 POPG P31 59 1.38046400 30.970000
60 L21_oT 1 POPG O32 60 -0.53430800 16.000000
61 L21_cA 1 POPG C31 61 -0.05670600 12.010000
62 L21_hE 1 POPG H1A 62 0.09335400 1.008000
63 L21_hE 1 POPG H1B 63 0.09335400 1.008000
64 L21_cA 1 POPG C32 64 0.33681600 12.010000
65 L21_hE 1 POPG H2A 65 0.03004200 1.008000
66 L21_oH 1 POPG O35 66 -0.72619200 16.000000
67 L21_hO 1 POPG HO5A 67 0.43952300 1.008000
68 L21_cA 1 POPG C33 68 0.19359700 12.010000
69 L21_hE 1 POPG H3A 69 0.03471500 1.008000
70 L21_hE 1 POPG H3B 70 0.03471500 1.008000
71 L21_oP 1 POPG O33 71 -0.87344400 16.000000
72 L21_oP 1 POPG O34 72 -0.87344400 16.000000
73 L21_oS 1 POPG O21 73 -0.59913100 16.000000
74 L21_cC 1 POPG C21 74 0.88366900 12.010000
75 L21_oC 1 POPG O22 75 -0.65576200 16.000000
76 L21_oH 1 POPG O36 76 -0.70087100 16.000000
77 L21_hO 1 POPG HO6A 77 0.42332800 1.008000
78 L21_cD 1 POPG C2Y 78 -0.14341800 12.010000
79 L21_hL 1 POPG H2U 79 0.04286100 1.008000
80 L21_hL 1 POPG H2V 80 0.04286100 1.008000
81 L21_cD 1 POPG C3Y 81 0.00161900 12.010000
82 L21_hL 1 POPG H3U 82 0.01952900 1.008000
83 L21_hL 1 POPG H3V 83 0.01952900 1.008000
84 L21_cD 1 POPG C4Y 84 -0.02296000 12.010000
85 L21_hL 1 POPG H4U 85 0.01813400 1.008000
86 L21_hL 1 POPG H4V 86 0.01813400 1.008000
87 L21_cD 1 POPG C5Y 87 -0.01669200 12.010000
88 L21_hL 1 POPG H5U 88 0.00869000 1.008000
89 L21_hL 1 POPG H5V 89 0.00869000 1.008000
90 L21_cD 1 POPG C6Y 90 -0.02378900 12.010000
91 L21_hL 1 POPG H6U 91 0.00926600 1.008000
92 L21_hL 1 POPG H6V 92 0.00926600 1.008000
93 L21_cD 1 POPG C7Y 93 -0.01749500 12.010000
94 L21_hL 1 POPG H7U 94 0.01959800 1.008000
95 L21_hL 1 POPG H7V 95 0.01959800 1.008000
96 L21_cD 1 POPG C8Y 96 0.03177500 12.010000
97 L21_hL 1 POPG H8U 97 0.03268500 1.008000
98 L21_hL 1 POPG H8V 98 0.03268500 1.008000
99 L21_cB 1 POPG C9Y 99 -0.24422800 12.010000
100 L21_hB 1 POPG H9U 100 0.13151200 1.008000
101 L21_cB 1 POPG C10Y 101 -0.23928400 12.010000
102 L21_hB 1 POPG H10U 102 0.12687800 1.008000
103 L21_cD 1 POPG C11Y 103 0.02905900 12.010000
104 L21_hL 1 POPG H11U 104 0.03353100 1.008000
105 L21_hL 1 POPG H11V 105 0.03353100 1.008000
106 L21_cD 1 POPG C12Y 106 -0.02635300 12.010000
107 L21_hL 1 POPG H12U 107 0.01971700 1.008000
108 L21_hL 1 POPG H12V 108 0.01971700 1.008000
109 L21_cD 1 POPG C13Y 109 -0.01825700 12.010000
110 L21_hL 1 POPG H13U 110 0.01380000 1.008000
111 L21_hL 1 POPG H13V 111 0.01380000 1.008000
112 L21_cD 1 POPG C14Y 112 -0.02484900 12.010000
113 L21_hL 1 POPG H14U 113 0.00857200 1.008000
114 L21_hL 1 POPG H14V 114 0.00857200 1.008000
115 L21_cD 1 POPG C15Y 115 -0.02324700 12.010000
116 L21_hL 1 POPG H15U 116 0.01040300 1.008000
117 L21_hL 1 POPG H15V 117 0.01040300 1.008000
118 L21_cD 1 POPG C16Y 118 -0.01248800 12.010000
119 L21_hL 1 POPG H16U 119 0.01365900 1.008000
120 L21_hL 1 POPG H16V 120 0.01365900 1.008000
121 L21_cD 1 POPG C17Y 121 0.00868400 12.010000
122 L21_hL 1 POPG H17U 122 0.01002600 1.008000
123 L21_hL 1 POPG H17V 123 0.01002600 1.008000
124 L21_cD 1 POPG C18Y 124 -0.11729000 12.010000
125 L21_hL 1 POPG H18U 125 0.02662700 1.008000
126 L21_hL 1 POPG H18V 126 0.02662700 1.008000
127 L21_hL 1 POPG H18W 127 0.02662700 1.008000

[ bonds ]
;    ai     aj funct         c0         c1         c2         c3
     44     47     1   0.15080 274721.440000
     41     44     1   0.15350 253634.080000
     38     41     1   0.15350 253634.080000
     35     38     1   0.15350 253634.080000
     32     35     1   0.15350 253634.080000
     29     32     1   0.15350 253634.080000
     26     29     1   0.15350 253634.080000
     23     26     1   0.15350 253634.080000
     20     23     1   0.15350 253634.080000
     17     20     1   0.15350 253634.080000
     14     17     1   0.15350 253634.080000
     11     14     1   0.15350 253634.080000
      8     11     1   0.15350 253634.080000
      5      8     1   0.15350 253634.080000
      1      5     1   0.15350 253634.080000
     74     75     1   0.12140 542246.400000
     74     78     1   0.15080 274721.440000
     73     74     1   0.13430 344175.840000
     68     76     1   0.14260 262838.880000
     64     66     1   0.14260 262838.880000
     64     68     1   0.15350 253634.080000
     61     64     1   0.15350 253634.080000
     60     61     1   0.14390 252295.200000
     59     60     1   0.16100 192464.000000
     59     71     1   0.14800 439320.000000
     59     72     1   0.14800 439320.000000
     58     59     1   0.16100 192464.000000
     55     58     1   0.14390 252295.200000
     53     55     1   0.15350 253634.080000
     53     73     1   0.14390 252295.200000
     50     53     1   0.15350 253634.080000
     49     50     1   0.14390 252295.200000
     47     48     1   0.12140 542246.400000
     47     49     1   0.13430 344175.840000
    121    124     1   0.15350 253634.080000
    118    121     1   0.15350 253634.080000
    115    118     1   0.15350 253634.080000
    112    115     1   0.15350 253634.080000
    109    112     1   0.15350 253634.080000
    106    109     1   0.15350 253634.080000
    103    106     1   0.15350 253634.080000
    101    103     1   0.15080 274721.440000
     99    101     1   0.13240 493460.960000
     96     99     1   0.15080 274721.440000
     93     96     1   0.15350 253634.080000
     90     93     1   0.15350 253634.080000
     87     90     1   0.15350 253634.080000
     84     87     1   0.15350 253634.080000
     81     84     1   0.15350 253634.080000
     78     81     1   0.15350 253634.080000
     44     45     1   0.10920 282252.640000
     44     46     1   0.10920 282252.640000
     41     42     1   0.10920 282252.640000
     41     43     1   0.10920 282252.640000
     38     39     1   0.10920 282252.640000
     38     40     1   0.10920 282252.640000
     35     36     1   0.10920 282252.640000
     35     37     1   0.10920 282252.640000
     32     33     1   0.10920 282252.640000
     32     34     1   0.10920 282252.640000
     29     30     1   0.10920 282252.640000
     29     31     1   0.10920 282252.640000
     26     27     1   0.10920 282252.640000
     26     28     1   0.10920 282252.640000
     23     24     1   0.10920 282252.640000
     23     25     1   0.10920 282252.640000
     20     21     1   0.10920 282252.640000
     20     22     1   0.10920 282252.640000
     17     18     1   0.10920 282252.640000
     17     19     1   0.10920 282252.640000
     14     15     1   0.10920 282252.640000
     14     16     1   0.10920 282252.640000
     11     12     1   0.10920 282252.640000
     11     13     1   0.10920 282252.640000
      8      9     1   0.10920 282252.640000
      8     10     1   0.10920 282252.640000
      5      6     1   0.10920 282252.640000
      5      7     1   0.10920 282252.640000
      1      2     1   0.10920 282252.640000
      1      3     1   0.10920 282252.640000
      1      4     1   0.10920 282252.640000
     76     77     1   0.09740 309281.280000
     68     69     1   0.10930 281081.120000
     68     70     1   0.10930 281081.120000
     66     67     1   0.09740 309281.280000
     64     65     1   0.10930 281081.120000
     61     62     1   0.10930 281081.120000
     61     63     1   0.10930 281081.120000
     55     56     1   0.10930 281081.120000
     55     57     1   0.10930 281081.120000
     53     54     1   0.10930 281081.120000
     50     51     1   0.10930 281081.120000
     50     52     1   0.10930 281081.120000
    124    125     1   0.10920 282252.640000
    124    126     1   0.10920 282252.640000
    124    127     1   0.10920 282252.640000
    121    122     1   0.10920 282252.640000
    121    123     1   0.10920 282252.640000
    118    119     1   0.10920 282252.640000
    118    120     1   0.10920 282252.640000
    115    116     1   0.10920 282252.640000
    115    117     1   0.10920 282252.640000
    112    113     1   0.10920 282252.640000
    112    114     1   0.10920 282252.640000
    109    110     1   0.10920 282252.640000
    109    111     1   0.10920 282252.640000
    106    107     1   0.10920 282252.640000
    106    108     1   0.10920 282252.640000
    103    104     1   0.10920 282252.640000
    103    105     1   0.10920 282252.640000
    101    102     1   0.10870 288110.240000
     99    100     1   0.10870 288110.240000
     96     97     1   0.10920 282252.640000
     96     98     1   0.10920 282252.640000
     93     94     1   0.10920 282252.640000
     93     95     1   0.10920 282252.640000
     90     91     1   0.10920 282252.640000
     90     92     1   0.10920 282252.640000
     87     88     1   0.10920 282252.640000
     87     89     1   0.10920 282252.640000
     84     85     1   0.10920 282252.640000
     84     86     1   0.10920 282252.640000
     81     82     1   0.10920 282252.640000
     81     83     1   0.10920 282252.640000
     78     79     1   0.10920 282252.640000
     78     80     1   0.10920 282252.640000


[ pairs ]
;    ai     aj funct         c0         c1         c2         c3
     44     50     1
     41     48     1
     41     49     1
     38     47     1
     35     44     1
     32     41     1
     29     38     1
     26     35     1
     23     32     1
     20     29     1
     17     26     1
     14     23     1
     11     20     1
      8     17     1
      5     14     1
      1     11     1
     75     81     1
     74     84     1
     73     81     1
     66     76     1
     61     71     1
     61     72     1
     61     76     1
     60     66     1
     60     68     1
     59     64     1
     58     73     1
     58     61     1
     55     74     1
     55     60     1
     55     71     1
     55     72     1
     53     59     1
     53     75     1
     53     78     1
     50     58     1
     50     74     1
     49     55     1
     49     73     1
     48     50     1
     47     53     1
    115    124     1
    112    121     1
    109    118     1
    106    115     1
    103    112     1
    101    109     1
     99    106     1
     96    103     1
     93    101     1
     90     99     1
     87     96     1
     84     93     1
     81     90     1
     78     87     1
     46     48     1
     46     49     1
     45     48     1
     45     49     1
     43     45     1
     43     46     1
     43     47     1
     42     45     1
     42     46     1
     42     47     1
     40     42     1
     40     43     1
     40     44     1
     39     42     1
     39     43     1
     39     44     1
     38     45     1
     38     46     1
     37     39     1
     37     40     1
     37     41     1
     36     39     1
     36     40     1
     36     41     1
     35     42     1
     35     43     1
     34     36     1
     34     37     1
     34     38     1
     33     36     1
     33     37     1
     33     38     1
     32     39     1
     32     40     1
     31     33     1
     31     34     1
     31     35     1
     30     33     1
     30     34     1
     30     35     1
     29     36     1
     29     37     1
     28     30     1
     28     31     1
     28     32     1
     27     30     1
     27     31     1
     27     32     1
     26     33     1
     26     34     1
     25     27     1
     25     28     1
     25     29     1
     24     27     1
     24     28     1
     24     29     1
     23     30     1
     23     31     1
     22     24     1
     22     25     1
     22     26     1
     21     24     1
     21     25     1
     21     26     1
     20     27     1
     20     28     1
     19     21     1
     19     22     1
     19     23     1
     18     21     1
     18     22     1
     18     23     1
     17     24     1
     17     25     1
     16     18     1
     16     19     1
     16     20     1
     15     18     1
     15     19     1
     15     20     1
     14     21     1
     14     22     1
     13     15     1
     13     16     1
     13     17     1
     12     15     1
     12     16     1
     12     17     1
     11     18     1
     11     19     1
     10     12     1
     10     13     1
     10     14     1
      9     12     1
      9     13     1
      9     14     1
      8     15     1
      8     16     1
      7      9     1
      7     10     1
      7     11     1
      6      9     1
      6     10     1
      6     11     1
      5     12     1
      5     13     1
      4      6     1
      4      7     1
      4      8     1
      3      6     1
      3      7     1
      3      8     1
      2      6     1
      2      7     1
      2      8     1
      1      9     1
      1     10     1
     75     79     1
     75     80     1
     74     82     1
     74     83     1
     73     79     1
     73     80     1
     70     77     1
     69     77     1
     67     68     1
     66     69     1
     66     70     1
     65     67     1
     65     69     1
     65     70     1
     65     76     1
     64     77     1
     63     65     1
     63     66     1
     63     68     1
     62     65     1
     62     66     1
     62     68     1
     61     67     1
     61     69     1
     61     70     1
     60     65     1
     59     62     1
     59     63     1
     57     73     1
     57     59     1
     56     73     1
     56     59     1
     54     56     1
     54     57     1
     54     58     1
     54     74     1
     52     54     1
     52     55     1
     52     73     1
     51     54     1
     51     55     1
     51     73     1
     50     56     1
     50     57     1
     49     54     1
     47     51     1
     47     52     1
    123    125     1
    123    126     1
    123    127     1
    122    125     1
    122    126     1
    122    127     1
    120    122     1
    120    123     1
    120    124     1
    119    122     1
    119    123     1
    119    124     1
    118    125     1
    118    126     1
    118    127     1
    117    119     1
    117    120     1
    117    121     1
    116    119     1
    116    120     1
    116    121     1
    115    122     1
    115    123     1
    114    116     1
    114    117     1
    114    118     1
    113    116     1
    113    117     1
    113    118     1
    112    119     1
    112    120     1
    111    113     1
    111    114     1
    111    115     1
    110    113     1
    110    114     1
    110    115     1
    109    116     1
    109    117     1
    108    110     1
    108    111     1
    108    112     1
    107    110     1
    107    111     1
    107    112     1
    106    113     1
    106    114     1
    105    107     1
    105    108     1
    105    109     1
    104    107     1
    104    108     1
    104    109     1
    103    110     1
    103    111     1
    102    104     1
    102    105     1
    102    106     1
    101    107     1
    101    108     1
    100    102     1
    100    103     1
     99    104     1
     99    105     1
     98    100     1
     98    101     1
     97    100     1
     97    101     1
     96    102     1
     95     97     1
     95     98     1
     95     99     1
     94     97     1
     94     98     1
     94     99     1
     93    100     1
     92     94     1
     92     95     1
     92     96     1
     91     94     1
     91     95     1
     91     96     1
     90     97     1
     90     98     1
     89     91     1
     89     92     1
     89     93     1
     88     91     1
     88     92     1
     88     93     1
     87     94     1
     87     95     1
     86     88     1
     86     89     1
     86     90     1
     85     88     1
     85     89     1
     85     90     1
     84     91     1
     84     92     1
     83     85     1
     83     86     1
     83     87     1
     82     85     1
     82     86     1
     82     87     1
     81     88     1
     81     89     1
     80     82     1
     80     83     1
     80     84     1
     79     82     1
     79     83     1
     79     84     1
     78     85     1
     78     86     1


[ angles ]
;    ai     aj     ak funct         c0         c1         c2         c3
     44     47     48     1   123.1100526 569.275040
     44     47     49     1   111.9600481 579.567680
     41     44     47     1   110.5300474 533.794720
     38     41     44     1   112.0500483 394.969600
     35     38     41     1   112.0500483 394.969600
     32     35     38     1   112.0500483 394.969600
     29     32     35     1   112.0500483 394.969600
     26     29     32     1   112.0500483 394.969600
     23     26     29     1   112.0500483 394.969600
     20     23     26     1   112.0500483 394.969600
     17     20     23     1   112.0500483 394.969600
     14     17     20     1   112.0500483 394.969600
     11     14     17     1   112.0500483 394.969600
      8     11     14     1   112.0500483 394.969600
      5      8     11     1   112.0500483 394.969600
      1      5      8     1   112.0500483 394.969600
     75     74     78     1   123.1100526 569.275040
     74     78     81     1   110.5300474 533.794720
     73     74     75     1   123.3300529 635.382240
     73     74     78     1   111.9600481 579.567680
     71     59     72     1   119.9000514 1171.520000
     66     64     68     1   109.4300470 566.680960
     64     68     76     1   109.4300470 566.680960
     61     64     66     1   109.4300470 566.680960
     61     64     68     1   110.6300475 528.941280
     60     59     71     1   108.2300464 836.800000
     60     59     72     1   108.2300464 836.800000
     60     61     64     1   108.4200467 567.183040
     59     60     61     1   120.5000516 836.800000
     58     59     60     1   102.6000440 753.120000
     58     59     71     1   108.2300464 836.800000
     58     59     72     1   108.2300464 836.800000
     55     53     73     1   108.4200467 567.183040
     55     58     59     1   120.5000516 836.800000
     53     55     58     1   108.4200467 567.183040
     53     73     74     1   115.1400492 532.455840
     50     53     55     1   110.6300475 528.941280
     50     53     73     1   108.4200467 567.183040
     49     50     53     1   108.4200467 567.183040
     48     47     49     1   123.3300529 635.382240
     47     49     50     1   115.1400492 532.455840
    118    121    124     1   112.0500483 394.969600
    115    118    121     1   112.0500483 394.969600
    112    115    118     1   112.0500483 394.969600
    109    112    115     1   112.0500483 394.969600
    106    109    112     1   112.0500483 394.969600
    103    106    109     1   112.0500483 394.969600
    101    103    106     1   111.4400476 531.619040
     99    101    103     1   123.4200531 538.313440
     96     99    101     1   123.4200531 538.313440
     93     96     99     1   111.4400476 531.619040
     90     93     96     1   112.0500483 394.969600
     87     90     93     1   112.0500483 394.969600
     84     87     90     1   112.0500483 394.969600
     81     84     87     1   112.0500483 394.969600
     78     81     84     1   112.0500483 394.969600
     46     44     47     1   109.6800468 394.969600
     45     44     46     1   108.3500467 329.950240
     45     44     47     1   109.6800468 394.969600
     43     41     44     1   110.0500475 388.024160
     42     41     43     1   108.3500467 329.950240
     42     41     44     1   110.0500475 388.024160
     41     44     45     1   110.0500475 388.024160
     41     44     46     1   110.0500475 388.024160
     40     38     41     1   110.0500475 388.024160
     39     38     40     1   108.3500467 329.950240
     39     38     41     1   110.0500475 388.024160
     38     41     42     1   110.0500475 388.024160
     38     41     43     1   110.0500475 388.024160
     37     35     38     1   110.0500475 388.024160
     36     35     37     1   108.3500467 329.950240
     36     35     38     1   110.0500475 388.024160
     35     38     39     1   110.0500475 388.024160
     35     38     40     1   110.0500475 388.024160
     34     32     35     1   110.0500475 388.024160
     33     32     34     1   108.3500467 329.950240
     33     32     35     1   110.0500475 388.024160
     32     35     36     1   110.0500475 388.024160
     32     35     37     1   110.0500475 388.024160
     31     29     32     1   110.0500475 388.024160
     30     29     31     1   108.3500467 329.950240
     30     29     32     1   110.0500475 388.024160
     29     32     33     1   110.0500475 388.024160
     29     32     34     1   110.0500475 388.024160
     28     26     29     1   110.0500475 388.024160
     27     26     28     1   108.3500467 329.950240
     27     26     29     1   110.0500475 388.024160
     26     29     30     1   110.0500475 388.024160
     26     29     31     1   110.0500475 388.024160
     25     23     26     1   110.0500475 388.024160
     24     23     25     1   108.3500467 329.950240
     24     23     26     1   110.0500475 388.024160
     23     26     27     1   110.0500475 388.024160
     23     26     28     1   110.0500475 388.024160
     22     20     23     1   110.0500475 388.024160
     21     20     22     1   108.3500467 329.950240
     21     20     23     1   110.0500475 388.024160
     20     23     24     1   110.0500475 388.024160
     20     23     25     1   110.0500475 388.024160
     19     17     20     1   110.0500475 388.024160
     18     17     19     1   108.3500467 329.950240
     18     17     20     1   110.0500475 388.024160
     17     20     21     1   110.0500475 388.024160
     17     20     22     1   110.0500475 388.024160
     16     14     17     1   110.0500475 388.024160
     15     14     16     1   108.3500467 329.950240
     15     14     17     1   110.0500475 388.024160
     14     17     18     1   110.0500475 388.024160
     14     17     19     1   110.0500475 388.024160
     13     11     14     1   110.0500475 388.024160
     12     11     13     1   108.3500467 329.950240
     12     11     14     1   110.0500475 388.024160
     11     14     15     1   110.0500475 388.024160
     11     14     16     1   110.0500475 388.024160
     10      8     11     1   110.0500475 388.024160
      9      8     10     1   108.3500467 329.950240
      9      8     11     1   110.0500475 388.024160
      8     11     12     1   110.0500475 388.024160
      8     11     13     1   110.0500475 388.024160
      7      5      8     1   110.0500475 388.024160
      6      5      7     1   108.3500467 329.950240
      6      5      8     1   110.0500475 388.024160
      5      8      9     1   110.0500475 388.024160
      5      8     10     1   110.0500475 388.024160
      4      1      5     1   110.0500475 388.024160
      3      1      4     1   108.3500467 329.950240
      3      1      5     1   110.0500475 388.024160
      2      1      3     1   108.3500467 329.950240
      2      1      4     1   108.3500467 329.950240
      2      1      5     1   110.0500475 388.024160
      1      5      6     1   110.0500475 388.024160
      1      5      7     1   110.0500475 388.024160
     74     78     79     1   109.6800468 394.969600
     74     78     80     1   109.6800468 394.969600
     70     68     76     1   109.8800469 426.516960
     69     68     70     1   109.5500472 327.858240
     69     68     76     1   109.8800469 426.516960
     68     76     77     1   108.1600465 394.049120
     65     64     66     1   109.8800469 426.516960
     65     64     68     1   110.0700471 387.940480
     64     66     67     1   108.1600465 394.049120
     64     68     69     1   110.0700471 387.940480
     64     68     70     1   110.0700471 387.940480
     63     61     64     1   110.0700471 387.940480
     62     61     63     1   109.5500472 327.858240
     62     61     64     1   110.0700471 387.940480
     61     64     65     1   110.0700471 387.940480
     60     61     62     1   108.8200469 425.429120
     60     61     63     1   108.8200469 425.429120
     57     55     58     1   108.8200469 425.429120
     56     55     57     1   109.5500472 327.858240
     56     55     58     1   108.8200469 425.429120
     54     53     55     1   110.0700471 387.940480
     54     53     73     1   108.8200469 425.429120
     53     55     56     1   110.0700471 387.940480
     53     55     57     1   110.0700471 387.940480
     52     50     53     1   110.0700471 387.940480
     51     50     52     1   109.5500472 327.858240
     51     50     53     1   110.0700471 387.940480
     50     53     54     1   110.0700471 387.940480
     49     50     51     1   108.8200469 425.429120
     49     50     52     1   108.8200469 425.429120
    126    124    127     1   108.3500467 329.950240
    125    124    126     1   108.3500467 329.950240
    125    124    127     1   108.3500467 329.950240
    123    121    124     1   110.0500475 388.024160
    122    121    123     1   108.3500467 329.950240
    122    121    124     1   110.0500475 388.024160
    121    124    125     1   110.0500475 388.024160
    121    124    126     1   110.0500475 388.024160
    121    124    127     1   110.0500475 388.024160
    120    118    121     1   110.0500475 388.024160
    119    118    120     1   108.3500467 329.950240
    119    118    121     1   110.0500475 388.024160
    118    121    122     1   110.0500475 388.024160
    118    121    123     1   110.0500475 388.024160
    117    115    118     1   110.0500475 388.024160
    116    115    117     1   108.3500467 329.950240
    116    115    118     1   110.0500475 388.024160
    115    118    119     1   110.0500475 388.024160
    115    118    120     1   110.0500475 388.024160
    114    112    115     1   110.0500475 388.024160
    113    112    114     1   108.3500467 329.950240
    113    112    115     1   110.0500475 388.024160
    112    115    116     1   110.0500475 388.024160
    112    115    117     1   110.0500475 388.024160
    111    109    112     1   110.0500475 388.024160
    110    109    111     1   108.3500467 329.950240
    110    109    112     1   110.0500475 388.024160
    109    112    113     1   110.0500475 388.024160
    109    112    114     1   110.0500475 388.024160
    108    106    109     1   110.0500475 388.024160
    107    106    108     1   108.3500467 329.950240
    107    106    109     1   110.0500475 388.024160
    106    109    110     1   110.0500475 388.024160
    106    109    111     1   110.0500475 388.024160
    105    103    106     1   110.0500475 388.024160
    104    103    105     1   108.3500467 329.950240
    104    103    106     1   110.0500475 388.024160
    103    106    107     1   110.0500475 388.024160
    103    106    108     1   110.0500475 388.024160
    102    101    103     1   117.3000503 382.082880
    101    103    104     1   110.4900475 393.547040
    101    103    105     1   110.4900475 393.547040
    100     99    101     1   120.9400517 418.734720
     99    101    102     1   120.9400517 418.734720
     98     96     99     1   110.4900475 393.547040
     97     96     98     1   108.3500467 329.950240
     97     96     99     1   110.4900475 393.547040
     96     99    100     1   117.3000503 382.082880
     95     93     96     1   110.0500475 388.024160
     94     93     95     1   108.3500467 329.950240
     94     93     96     1   110.0500475 388.024160
     93     96     97     1   110.0500475 388.024160
     93     96     98     1   110.0500475 388.024160
     92     90     93     1   110.0500475 388.024160
     91     90     92     1   108.3500467 329.950240
     91     90     93     1   110.0500475 388.024160
     90     93     94     1   110.0500475 388.024160
     90     93     95     1   110.0500475 388.024160
     89     87     90     1   110.0500475 388.024160
     88     87     89     1   108.3500467 329.950240
     88     87     90     1   110.0500475 388.024160
     87     90     91     1   110.0500475 388.024160
     87     90     92     1   110.0500475 388.024160
     86     84     87     1   110.0500475 388.024160
     85     84     86     1   108.3500467 329.950240
     85     84     87     1   110.0500475 388.024160
     84     87     88     1   110.0500475 388.024160
     84     87     89     1   110.0500475 388.024160
     83     81     84     1   110.0500475 388.024160
     82     81     83     1   108.3500467 329.950240
     82     81     84     1   110.0500475 388.024160
     81     84     85     1   110.0500475 388.024160
     81     84     86     1   110.0500475 388.024160
     80     78     81     1   110.0500475 388.024160
     79     78     80     1   108.3500467 329.950240
     79     78     81     1   110.0500475 388.024160
     78     81     82     1   110.0500475 388.024160
     78     81     83     1   110.0500475 388.024160


[ dihedrals ]
;    ai     aj     ak     al funct         c0         c1         c2         c3         c4         c5
     44     47     49     50     1  180.0000771  11.2968000  2
     41     44     47     48     1  180.0000771  0.0000000  2
     41     44     47     49     1  180.0000771  0.0000000  2
     38     41     44     47     1  0.0000000  0.6527040  3
     35     38     41     44     1  0.0000000  0.4184000  1
     35     38     41     44     1  0.0000000  0.4184000  2
     35     38     41     44     1  0.0000000  1.2552000  3
     35     38     41     44     1  0.0000000  0.4184000  4
     35     38     41     44     1  0.0000000  0.4184000  5
     32     35     38     41     1  0.0000000  0.4184000  1
     32     35     38     41     1  0.0000000  0.4184000  2
     32     35     38     41     1  0.0000000  1.2552000  3
     32     35     38     41     1  0.0000000  0.4184000  4
     32     35     38     41     1  0.0000000  0.4184000  5
     29     32     35     38     1  0.0000000  0.4184000  1
     29     32     35     38     1  0.0000000  0.4184000  2
     29     32     35     38     1  0.0000000  1.2552000  3
     29     32     35     38     1  0.0000000  0.4184000  4
     29     32     35     38     1  0.0000000  0.4184000  5
     26     29     32     35     1  0.0000000  0.4184000  1
     26     29     32     35     1  0.0000000  0.4184000  2
     26     29     32     35     1  0.0000000  1.2552000  3
     26     29     32     35     1  0.0000000  0.4184000  4
     26     29     32     35     1  0.0000000  0.4184000  5
     23     26     29     32     1  0.0000000  0.4184000  1
     23     26     29     32     1  0.0000000  0.4184000  2
     23     26     29     32     1  0.0000000  1.2552000  3
     23     26     29     32     1  0.0000000  0.4184000  4
     23     26     29     32     1  0.0000000  0.4184000  5
     20     23     26     29     1  0.0000000  0.4184000  1
     20     23     26     29     1  0.0000000  0.4184000  2
     20     23     26     29     1  0.0000000  1.2552000  3
     20     23     26     29     1  0.0000000  0.4184000  4
     20     23     26     29     1  0.0000000  0.4184000  5
     17     20     23     26     1  0.0000000  0.4184000  1
     17     20     23     26     1  0.0000000  0.4184000  2
     17     20     23     26     1  0.0000000  1.2552000  3
     17     20     23     26     1  0.0000000  0.4184000  4
     17     20     23     26     1  0.0000000  0.4184000  5
     14     17     20     23     1  0.0000000  0.4184000  1
     14     17     20     23     1  0.0000000  0.4184000  2
     14     17     20     23     1  0.0000000  1.2552000  3
     14     17     20     23     1  0.0000000  0.4184000  4
     14     17     20     23     1  0.0000000  0.4184000  5
     11     14     17     20     1  0.0000000  0.4184000  1
     11     14     17     20     1  0.0000000  0.4184000  2
     11     14     17     20     1  0.0000000  1.2552000  3
     11     14     17     20     1  0.0000000  0.4184000  4
     11     14     17     20     1  0.0000000  0.4184000  5
      8     11     14     17     1  0.0000000  0.4184000  1
      8     11     14     17     1  0.0000000  0.4184000  2
      8     11     14     17     1  0.0000000  1.2552000  3
      8     11     14     17     1  0.0000000  0.4184000  4
      8     11     14     17     1  0.0000000  0.4184000  5
      5      8     11     14     1  0.0000000  0.4184000  1
      5      8     11     14     1  0.0000000  0.4184000  2
      5      8     11     14     1  0.0000000  1.2552000  3
      5      8     11     14     1  0.0000000  0.4184000  4
      5      8     11     14     1  0.0000000  0.4184000  5
      1      5      8     11     1  0.0000000  0.4184000  1
      1      5      8     11     1  0.0000000  0.4184000  2
      1      5      8     11     1  0.0000000  1.2552000  3
      1      5      8     11     1  0.0000000  0.4184000  4
      1      5      8     11     1  0.0000000  0.4184000  5
     75     74     78     81     1  180.0000771  0.0000000  2
     74     78     81     84     1  0.0000000  0.6527040  3
     73     74     78     81     1  180.0000771  0.0000000  2
     66     64     68     76     1  0.0000000  4.9162000  2
     66     64     68     76     1  0.0000000  0.6024960  3
     61     60     59     71     1  0.0000000  0.0000000  1
     61     60     59     71     1  0.0000000  0.8368000  2
     61     60     59     71     1  0.0000000  0.0000000  3
     61     60     59     71     1  0.0000000  0.0000000  4
     61     60     59     71     1  0.0000000  0.0000000  5
     61     60     59     72     1  0.0000000  0.0000000  1
     61     60     59     72     1  0.0000000  0.8368000  2
     61     60     59     72     1  0.0000000  0.0000000  3
     61     60     59     72     1  0.0000000  0.0000000  4
     61     60     59     72     1  0.0000000  0.0000000  5
     61     64     68     76     1  0.0000000  0.6510304  3
     60     61     64     66     1  0.0000000  4.9162000  2
     60     61     64     66     1  0.0000000  0.6024960  3
     60     61     64     68     1  180.0000771  3.3472000  1
     60     61     64     68     1  120.0000514  0.8368000  2
     60     61     64     68     1  60.0000257  1.6736000  3
     59     60     61     64     1  180.0000771  -3.3472000  2
     59     60     61     64     1  0.0000000  0.0000000  3
     58     55     53     73     1  0.0000000  0.0000000  1
     58     55     53     73     1  0.0000000  0.0000000  2
     58     55     53     73     1  0.0000000  0.0000000  3
     58     55     53     73     1  0.0000000  0.0000000  4
     58     55     53     73     1  0.0000000  0.0000000  5
     58     59     60     61     1  0.0000000  9.6232000  2
     58     59     60     61     1  0.0000000  2.5104000  3
     55     53     73     74     1  0.0000000  -0.4184000  1
     55     53     73     74     1  240.0001029  -1.2552000  2
     55     53     73     74     1  300.0001286  -0.8368000  3
     55     58     59     60     1  0.0000000  9.6232000  2
     55     58     59     60     1  0.0000000  2.5104000  3
     55     58     59     71     1  0.0000000  0.0000000  1
     55     58     59     71     1  0.0000000  0.8368000  2
     55     58     59     71     1  0.0000000  0.0000000  3
     55     58     59     71     1  0.0000000  0.0000000  4
     55     58     59     71     1  0.0000000  0.0000000  5
     55     58     59     72     1  0.0000000  0.0000000  1
     55     58     59     72     1  0.0000000  0.8368000  2
     55     58     59     72     1  0.0000000  0.0000000  3
     55     58     59     72     1  0.0000000  0.0000000  4
     55     58     59     72     1  0.0000000  0.0000000  5
     53     55     58     59     1  180.0000771  -3.3472000  2
     53     55     58     59     1  0.0000000  0.0000000  3
     53     73     74     75     1  180.0000771  5.8576000  1
     53     73     74     75     1  180.0000771  11.2968000  2
     53     73     74     78     1  180.0000771  11.2968000  2
     50     53     55     58     1  180.0000771  3.3472000  1
     50     53     55     58     1  120.0000514  0.8368000  2
     50     53     55     58     1  60.0000257  1.6736000  3
     50     53     73     74     1  0.0000000  -0.4184000  1
     50     53     73     74     1  240.0001029  -1.2552000  2
     50     53     73     74     1  300.0001286  -0.8368000  3
     49     50     53     55     1  0.0000000  0.0000000  1
     49     50     53     55     1  0.0000000  0.0000000  2
     49     50     53     55     1  0.0000000  0.0000000  3
     49     50     53     55     1  0.0000000  0.0000000  4
     49     50     53     55     1  0.0000000  0.0000000  5
     49     50     53     73     1  180.0000771  -0.4184000  1
     49     50     53     73     1  0.0000000  1.2552000  2
     49     50     53     73     1  0.0000000  4.1840000  3
     48     47     49     50     1  180.0000771  5.8576000  1
     48     47     49     50     1  180.0000771  11.2968000  2
     47     49     50     53     1  0.0000000  -0.4184000  1
     47     49     50     53     1  240.0001029  -1.2552000  2
     47     49     50     53     1  300.0001286  -0.8368000  3
    115    118    121    124     1  0.0000000  0.4184000  1
    115    118    121    124     1  0.0000000  0.4184000  2
    115    118    121    124     1  0.0000000  1.2552000  3
    115    118    121    124     1  0.0000000  0.4184000  4
    115    118    121    124     1  0.0000000  0.4184000  5
    112    115    118    121     1  0.0000000  0.4184000  1
    112    115    118    121     1  0.0000000  0.4184000  2
    112    115    118    121     1  0.0000000  1.2552000  3
    112    115    118    121     1  0.0000000  0.4184000  4
    112    115    118    121     1  0.0000000  0.4184000  5
    109    112    115    118     1  0.0000000  0.4184000  1
    109    112    115    118     1  0.0000000  0.4184000  2
    109    112    115    118     1  0.0000000  1.2552000  3
    109    112    115    118     1  0.0000000  0.4184000  4
    109    112    115    118     1  0.0000000  0.4184000  5
    106    109    112    115     1  0.0000000  0.4184000  1
    106    109    112    115     1  0.0000000  0.4184000  2
    106    109    112    115     1  0.0000000  1.2552000  3
    106    109    112    115     1  0.0000000  0.4184000  4
    106    109    112    115     1  0.0000000  0.4184000  5
    103    106    109    112     1  0.0000000  0.4184000  1
    103    106    109    112     1  0.0000000  0.4184000  2
    103    106    109    112     1  0.0000000  1.2552000  3
    103    106    109    112     1  0.0000000  0.4184000  4
    103    106    109    112     1  0.0000000  0.4184000  5
    101    103    106    109     1  0.0000000  0.0000000  1
    101    103    106    109     1  0.0000000  0.0000000  2
    101    103    106    109     1  0.0000000  2.0920000  3
    101    103    106    109     1  0.0000000  0.0000000  4
    101    103    106    109     1  0.0000000  0.4184000  5
     99    101    103    106     1  0.0000000  2.5104000  1
     99    101    103    106     1  180.0000771  1.6736000  2
     99    101    103    106     1  180.0000771  1.6736000  3
     99    101    103    106     1  180.0000771  0.8368000  4
     99    101    103    106     1  180.0000771  0.8368000  5
     96     99    101    103     1  180.0000771  7.1128000  1
     96     99    101    103     1  180.0000771  13.8072000  2
     96     99    101    103     1  0.0000000  2.5104000  3
     96     99    101    103     1  0.0000000  0.0000000  4
     96     99    101    103     1  0.0000000  0.0000000  5
     93     96     99    101     1  0.0000000  2.5104000  1
     93     96     99    101     1  180.0000771  1.6736000  2
     93     96     99    101     1  180.0000771  1.6736000  3
     93     96     99    101     1  180.0000771  0.8368000  4
     93     96     99    101     1  180.0000771  0.8368000  5
     90     93     96     99     1  0.0000000  0.0000000  1
     90     93     96     99     1  0.0000000  0.0000000  2
     90     93     96     99     1  0.0000000  2.0920000  3
     90     93     96     99     1  0.0000000  0.0000000  4
     90     93     96     99     1  0.0000000  0.4184000  5
     87     90     93     96     1  0.0000000  0.4184000  1
     87     90     93     96     1  0.0000000  0.4184000  2
     87     90     93     96     1  0.0000000  1.2552000  3
     87     90     93     96     1  0.0000000  0.4184000  4
     87     90     93     96     1  0.0000000  0.4184000  5
     84     87     90     93     1  0.0000000  0.4184000  1
     84     87     90     93     1  0.0000000  0.4184000  2
     84     87     90     93     1  0.0000000  1.2552000  3
     84     87     90     93     1  0.0000000  0.4184000  4
     84     87     90     93     1  0.0000000  0.4184000  5
     81     84     87     90     1  0.0000000  0.4184000  1
     81     84     87     90     1  0.0000000  0.4184000  2
     81     84     87     90     1  0.0000000  1.2552000  3
     81     84     87     90     1  0.0000000  0.4184000  4
     81     84     87     90     1  0.0000000  0.4184000  5
     78     81     84     87     1  0.0000000  0.4184000  1
     78     81     84     87     1  0.0000000  0.4184000  2
     78     81     84     87     1  0.0000000  1.2552000  3
     78     81     84     87     1  0.0000000  0.4184000  4
     78     81     84     87     1  0.0000000  0.4184000  5
     78     75     74     73     4  180.0000771  43.9320000  2
     44     48     47     49     4  180.0000771  43.9320000  2
     46     44     47     48     1  0.0000000  3.3472000  1
     46     44     47     48     1  180.0000771  0.3347200  3
     46     44     47     49     1  180.0000771  0.0000000  2
     45     44     47     48     1  0.0000000  3.3472000  1
     45     44     47     48     1  180.0000771  0.3347200  3
     45     44     47     49     1  180.0000771  0.0000000  2
     43     41     44     45     1  0.0000000  0.6276000  3
     43     41     44     46     1  0.0000000  0.6276000  3
     43     41     44     47     1  0.0000000  0.6527040  3
     42     41     44     45     1  0.0000000  0.6276000  3
     42     41     44     46     1  0.0000000  0.6276000  3
     42     41     44     47     1  0.0000000  0.6527040  3
     40     38     41     42     1  0.0000000  0.6276000  3
     40     38     41     43     1  0.0000000  0.6276000  3
     40     38     41     44     1  0.0000000  0.6694400  3
     39     38     41     42     1  0.0000000  0.6276000  3
     39     38     41     43     1  0.0000000  0.6276000  3
     39     38     41     44     1  0.0000000  0.6694400  3
     38     41     44     45     1  0.0000000  0.6694400  3
     38     41     44     46     1  0.0000000  0.6694400  3
     37     35     38     39     1  0.0000000  0.6276000  3
     37     35     38     40     1  0.0000000  0.6276000  3
     37     35     38     41     1  0.0000000  0.6694400  3
     36     35     38     39     1  0.0000000  0.6276000  3
     36     35     38     40     1  0.0000000  0.6276000  3
     36     35     38     41     1  0.0000000  0.6694400  3
     35     38     41     42     1  0.0000000  0.6694400  3
     35     38     41     43     1  0.0000000  0.6694400  3
     34     32     35     36     1  0.0000000  0.6276000  3
     34     32     35     37     1  0.0000000  0.6276000  3
     34     32     35     38     1  0.0000000  0.6694400  3
     33     32     35     36     1  0.0000000  0.6276000  3
     33     32     35     37     1  0.0000000  0.6276000  3
     33     32     35     38     1  0.0000000  0.6694400  3
     32     35     38     39     1  0.0000000  0.6694400  3
     32     35     38     40     1  0.0000000  0.6694400  3
     31     29     32     33     1  0.0000000  0.6276000  3
     31     29     32     34     1  0.0000000  0.6276000  3
     31     29     32     35     1  0.0000000  0.6694400  3
     30     29     32     33     1  0.0000000  0.6276000  3
     30     29     32     34     1  0.0000000  0.6276000  3
     30     29     32     35     1  0.0000000  0.6694400  3
     29     32     35     36     1  0.0000000  0.6694400  3
     29     32     35     37     1  0.0000000  0.6694400  3
     28     26     29     30     1  0.0000000  0.6276000  3
     28     26     29     31     1  0.0000000  0.6276000  3
     28     26     29     32     1  0.0000000  0.6694400  3
     27     26     29     30     1  0.0000000  0.6276000  3
     27     26     29     31     1  0.0000000  0.6276000  3
     27     26     29     32     1  0.0000000  0.6694400  3
     26     29     32     33     1  0.0000000  0.6694400  3
     26     29     32     34     1  0.0000000  0.6694400  3
     25     23     26     27     1  0.0000000  0.6276000  3
     25     23     26     28     1  0.0000000  0.6276000  3
     25     23     26     29     1  0.0000000  0.6694400  3
     24     23     26     27     1  0.0000000  0.6276000  3
     24     23     26     28     1  0.0000000  0.6276000  3
     24     23     26     29     1  0.0000000  0.6694400  3
     23     26     29     30     1  0.0000000  0.6694400  3
     23     26     29     31     1  0.0000000  0.6694400  3
     22     20     23     24     1  0.0000000  0.6276000  3
     22     20     23     25     1  0.0000000  0.6276000  3
     22     20     23     26     1  0.0000000  0.6694400  3
     21     20     23     24     1  0.0000000  0.6276000  3
     21     20     23     25     1  0.0000000  0.6276000  3
     21     20     23     26     1  0.0000000  0.6694400  3
     20     23     26     27     1  0.0000000  0.6694400  3
     20     23     26     28     1  0.0000000  0.6694400  3
     19     17     20     21     1  0.0000000  0.6276000  3
     19     17     20     22     1  0.0000000  0.6276000  3
     19     17     20     23     1  0.0000000  0.6694400  3
     18     17     20     21     1  0.0000000  0.6276000  3
     18     17     20     22     1  0.0000000  0.6276000  3
     18     17     20     23     1  0.0000000  0.6694400  3
     17     20     23     24     1  0.0000000  0.6694400  3
     17     20     23     25     1  0.0000000  0.6694400  3
     16     14     17     18     1  0.0000000  0.6276000  3
     16     14     17     19     1  0.0000000  0.6276000  3
     16     14     17     20     1  0.0000000  0.6694400  3
     15     14     17     18     1  0.0000000  0.6276000  3
     15     14     17     19     1  0.0000000  0.6276000  3
     15     14     17     20     1  0.0000000  0.6694400  3
     14     17     20     21     1  0.0000000  0.6694400  3
     14     17     20     22     1  0.0000000  0.6694400  3
     13     11     14     15     1  0.0000000  0.6276000  3
     13     11     14     16     1  0.0000000  0.6276000  3
     13     11     14     17     1  0.0000000  0.6694400  3
     12     11     14     15     1  0.0000000  0.6276000  3
     12     11     14     16     1  0.0000000  0.6276000  3
     12     11     14     17     1  0.0000000  0.6694400  3
     11     14     17     18     1  0.0000000  0.6694400  3
     11     14     17     19     1  0.0000000  0.6694400  3
     10      8     11     12     1  0.0000000  0.6276000  3
     10      8     11     13     1  0.0000000  0.6276000  3
     10      8     11     14     1  0.0000000  0.6694400  3
      9      8     11     12     1  0.0000000  0.6276000  3
      9      8     11     13     1  0.0000000  0.6276000  3
      9      8     11     14     1  0.0000000  0.6694400  3
      8     11     14     15     1  0.0000000  0.6694400  3
      8     11     14     16     1  0.0000000  0.6694400  3
      7      5      8      9     1  0.0000000  0.6276000  3
      7      5      8     10     1  0.0000000  0.6276000  3
      7      5      8     11     1  0.0000000  0.6694400  3
      6      5      8      9     1  0.0000000  0.6276000  3
      6      5      8     10     1  0.0000000  0.6276000  3
      6      5      8     11     1  0.0000000  0.6694400  3
      5      8     11     12     1  0.0000000  0.6694400  3
      5      8     11     13     1  0.0000000  0.6694400  3
      4      1      5      6     1  0.0000000  0.6276000  3
      4      1      5      7     1  0.0000000  0.6276000  3
      4      1      5      8     1  0.0000000  0.6694400  3
      3      1      5      6     1  0.0000000  0.6276000  3
      3      1      5      7     1  0.0000000  0.6276000  3
      3      1      5      8     1  0.0000000  0.6694400  3
      2      1      5      6     1  0.0000000  0.6276000  3
      2      1      5      7     1  0.0000000  0.6276000  3
      2      1      5      8     1  0.0000000  0.6694400  3
      1      5      8      9     1  0.0000000  0.6694400  3
      1      5      8     10     1  0.0000000  0.6694400  3
     75     74     78     79     1  0.0000000  3.3472000  1
     75     74     78     79     1  180.0000771  0.3347200  3
     75     74     78     80     1  0.0000000  3.3472000  1
     75     74     78     80     1  180.0000771  0.3347200  3
     74     78     81     82     1  0.0000000  0.6527040  3
     74     78     81     83     1  0.0000000  0.6527040  3
     73     74     78     79     1  180.0000771  0.0000000  2
     73     74     78     80     1  180.0000771  0.0000000  2
     70     68     76     77     1  0.0000000  2.0920000  3
     69     68     76     77     1  0.0000000  2.0920000  3
     67     66     64     68     1  0.0000000  1.0460000  1
     67     66     64     68     1  0.0000000  0.6694400  3
     66     64     68     69     1  0.0000000  1.0460000  1
     66     64     68     69     1  0.0000000  0.0000000  3
     66     64     68     70     1  0.0000000  1.0460000  1
     66     64     68     70     1  0.0000000  0.0000000  3
     65     64     66     67     1  0.0000000  2.0920000  3
     65     64     68     69     1  0.0000000  0.6527040  3
     65     64     68     70     1  0.0000000  0.6527040  3
     65     64     68     76     1  0.0000000  1.0460000  1
     65     64     68     76     1  0.0000000  0.0000000  3
     64     68     76     77     1  0.0000000  1.0460000  1
     64     68     76     77     1  0.0000000  0.6694400  3
     63     61     64     65     1  0.0000000  0.6527040  3
     63     61     64     66     1  0.0000000  1.0460000  1
     63     61     64     66     1  0.0000000  0.0000000  3
     63     61     64     68     1  0.0000000  0.6527040  3
     62     61     64     65     1  0.0000000  0.6527040  3
     62     61     64     66     1  0.0000000  1.0460000  1
     62     61     64     66     1  0.0000000  0.0000000  3
     62     61     64     68     1  0.0000000  0.6527040  3
     61     64     66     67     1  0.0000000  1.0460000  1
     61     64     66     67     1  0.0000000  0.6694400  3
     61     64     68     69     1  0.0000000  0.6527040  3
     61     64     68     70     1  0.0000000  0.6527040  3
     60     61     64     65     1  0.0000000  1.0460000  1
     60     61     64     65     1  0.0000000  0.0000000  3
     59     60     61     62     1  0.0000000  0.0000000  1
     59     60     61     62     1  0.0000000  0.0000000  2
     59     60     61     62     1  0.0000000  1.6024720  3
     59     60     61     62     1  0.0000000  0.0000000  4
     59     60     61     62     1  0.0000000  0.0000000  5
     59     60     61     63     1  0.0000000  0.0000000  1
     59     60     61     63     1  0.0000000  0.0000000  2
     59     60     61     63     1  0.0000000  1.6024720  3
     59     60     61     63     1  0.0000000  0.0000000  4
     59     60     61     63     1  0.0000000  0.0000000  5
     57     55     53     73     1  0.0000000  1.0460000  1
     57     55     53     73     1  0.0000000  0.0000000  3
     57     55     58     59     1  0.0000000  0.0000000  1
     57     55     58     59     1  0.0000000  0.0000000  2
     57     55     58     59     1  0.0000000  1.6024720  3
     57     55     58     59     1  0.0000000  0.0000000  4
     57     55     58     59     1  0.0000000  0.0000000  5
     56     55     53     73     1  0.0000000  1.0460000  1
     56     55     53     73     1  0.0000000  0.0000000  3
     56     55     58     59     1  0.0000000  0.0000000  1
     56     55     58     59     1  0.0000000  0.0000000  2
     56     55     58     59     1  0.0000000  1.6024720  3
     56     55     58     59     1  0.0000000  0.0000000  4
     56     55     58     59     1  0.0000000  0.0000000  5
     54     53     55     56     1  0.0000000  0.6527040  3
     54     53     55     57     1  0.0000000  0.6527040  3
     54     53     55     58     1  0.0000000  1.0460000  1
     54     53     55     58     1  0.0000000  0.0000000  3
     54     53     73     74     1  0.0000000  1.6024720  3
     52     50     53     54     1  0.0000000  0.6527040  3
     52     50     53     55     1  0.0000000  0.6527040  3
     52     50     53     73     1  0.0000000  1.0460000  1
     52     50     53     73     1  0.0000000  0.0000000  3
     51     50     53     54     1  0.0000000  0.6527040  3
     51     50     53     55     1  0.0000000  0.6527040  3
     51     50     53     73     1  0.0000000  1.0460000  1
     51     50     53     73     1  0.0000000  0.0000000  3
     50     53     55     56     1  0.0000000  0.6527040  3
     50     53     55     57     1  0.0000000  0.6527040  3
     49     50     53     54     1  0.0000000  1.0460000  1
     49     50     53     54     1  0.0000000  0.0000000  3
     47     49     50     51     1  0.0000000  1.6024720  3
     47     49     50     52     1  0.0000000  1.6024720  3
    123    121    124    125     1  0.0000000  0.6276000  3
    123    121    124    126     1  0.0000000  0.6276000  3
    123    121    124    127     1  0.0000000  0.6276000  3
    122    121    124    125     1  0.0000000  0.6276000  3
    122    121    124    126     1  0.0000000  0.6276000  3
    122    121    124    127     1  0.0000000  0.6276000  3
    120    118    121    122     1  0.0000000  0.6276000  3
    120    118    121    123     1  0.0000000  0.6276000  3
    120    118    121    124     1  0.0000000  0.6694400  3
    119    118    121    122     1  0.0000000  0.6276000  3
    119    118    121    123     1  0.0000000  0.6276000  3
    119    118    121    124     1  0.0000000  0.6694400  3
    118    121    124    125     1  0.0000000  0.6694400  3
    118    121    124    126     1  0.0000000  0.6694400  3
    118    121    124    127     1  0.0000000  0.6694400  3
    117    115    118    119     1  0.0000000  0.6276000  3
    117    115    118    120     1  0.0000000  0.6276000  3
    117    115    118    121     1  0.0000000  0.6694400  3
    116    115    118    119     1  0.0000000  0.6276000  3
    116    115    118    120     1  0.0000000  0.6276000  3
    116    115    118    121     1  0.0000000  0.6694400  3
    115    118    121    122     1  0.0000000  0.6694400  3
    115    118    121    123     1  0.0000000  0.6694400  3
    114    112    115    116     1  0.0000000  0.6276000  3
    114    112    115    117     1  0.0000000  0.6276000  3
    114    112    115    118     1  0.0000000  0.6694400  3
    113    112    115    116     1  0.0000000  0.6276000  3
    113    112    115    117     1  0.0000000  0.6276000  3
    113    112    115    118     1  0.0000000  0.6694400  3
    112    115    118    119     1  0.0000000  0.6694400  3
    112    115    118    120     1  0.0000000  0.6694400  3
    111    109    112    113     1  0.0000000  0.6276000  3
    111    109    112    114     1  0.0000000  0.6276000  3
    111    109    112    115     1  0.0000000  0.6694400  3
    110    109    112    113     1  0.0000000  0.6276000  3
    110    109    112    114     1  0.0000000  0.6276000  3
    110    109    112    115     1  0.0000000  0.6694400  3
    109    112    115    116     1  0.0000000  0.6694400  3
    109    112    115    117     1  0.0000000  0.6694400  3
    108    106    109    110     1  0.0000000  0.6276000  3
    108    106    109    111     1  0.0000000  0.6276000  3
    108    106    109    112     1  0.0000000  0.6694400  3
    107    106    109    110     1  0.0000000  0.6276000  3
    107    106    109    111     1  0.0000000  0.6276000  3
    107    106    109    112     1  0.0000000  0.6694400  3
    106    109    112    113     1  0.0000000  0.6694400  3
    106    109    112    114     1  0.0000000  0.6694400  3
    105    103    106    107     1  0.0000000  0.6276000  3
    105    103    106    108     1  0.0000000  0.6276000  3
    105    103    106    109     1  0.0000000  0.6694400  3
    104    103    106    107     1  0.0000000  0.6276000  3
    104    103    106    108     1  0.0000000  0.6276000  3
    104    103    106    109     1  0.0000000  0.6694400  3
    103    106    109    110     1  0.0000000  0.6694400  3
    103    106    109    111     1  0.0000000  0.6694400  3
    102    101    103    104     1  0.0000000  0.0000000  2
    102    101    103    105     1  0.0000000  0.0000000  2
    102    101    103    106     1  0.0000000  0.0000000  2
    101    103    106    107     1  0.0000000  0.6510304  3
    101    103    106    108     1  0.0000000  0.6510304  3
    100     99    101    102     1  180.0000771  27.8236000  2
    100     99    101    103     1  180.0000771  27.8236000  2
     99    101    103    104     1  0.0000000  4.8116000  1
     99    101    103    104     1  180.0000771  1.5899200  3
     99    101    103    105     1  0.0000000  4.8116000  1
     99    101    103    105     1  180.0000771  1.5899200  3
     98     96     99    100     1  0.0000000  0.0000000  2
     98     96     99    101     1  0.0000000  4.8116000  1
     98     96     99    101     1  180.0000771  1.5899200  3
     97     96     99    100     1  0.0000000  0.0000000  2
     97     96     99    101     1  0.0000000  4.8116000  1
     97     96     99    101     1  180.0000771  1.5899200  3
     96     99    101    102     1  180.0000771  27.8236000  2
     95     93     96     97     1  0.0000000  0.6276000  3
     95     93     96     98     1  0.0000000  0.6276000  3
     95     93     96     99     1  0.0000000  0.6510304  3
     94     93     96     97     1  0.0000000  0.6276000  3
     94     93     96     98     1  0.0000000  0.6276000  3
     94     93     96     99     1  0.0000000  0.6510304  3
     93     96     99    100     1  0.0000000  0.0000000  2
     92     90     93     94     1  0.0000000  0.6276000  3
     92     90     93     95     1  0.0000000  0.6276000  3
     92     90     93     96     1  0.0000000  0.6694400  3
     91     90     93     94     1  0.0000000  0.6276000  3
     91     90     93     95     1  0.0000000  0.6276000  3
     91     90     93     96     1  0.0000000  0.6694400  3
     90     93     96     97     1  0.0000000  0.6694400  3
     90     93     96     98     1  0.0000000  0.6694400  3
     89     87     90     91     1  0.0000000  0.6276000  3
     89     87     90     92     1  0.0000000  0.6276000  3
     89     87     90     93     1  0.0000000  0.6694400  3
     88     87     90     91     1  0.0000000  0.6276000  3
     88     87     90     92     1  0.0000000  0.6276000  3
     88     87     90     93     1  0.0000000  0.6694400  3
     87     90     93     94     1  0.0000000  0.6694400  3
     87     90     93     95     1  0.0000000  0.6694400  3
     86     84     87     88     1  0.0000000  0.6276000  3
     86     84     87     89     1  0.0000000  0.6276000  3
     86     84     87     90     1  0.0000000  0.6694400  3
     85     84     87     88     1  0.0000000  0.6276000  3
     85     84     87     89     1  0.0000000  0.6276000  3
     85     84     87     90     1  0.0000000  0.6694400  3
     84     87     90     91     1  0.0000000  0.6694400  3
     84     87     90     92     1  0.0000000  0.6694400  3
     83     81     84     85     1  0.0000000  0.6276000  3
     83     81     84     86     1  0.0000000  0.6276000  3
     83     81     84     87     1  0.0000000  0.6694400  3
     82     81     84     85     1  0.0000000  0.6276000  3
     82     81     84     86     1  0.0000000  0.6276000  3
     82     81     84     87     1  0.0000000  0.6694400  3
     81     84     87     88     1  0.0000000  0.6694400  3
     81     84     87     89     1  0.0000000  0.6694400  3
     80     78     81     82     1  0.0000000  0.6276000  3
     80     78     81     83     1  0.0000000  0.6276000  3
     80     78     81     84     1  0.0000000  0.6694400  3
     79     78     81     82     1  0.0000000  0.6276000  3
     79     78     81     83     1  0.0000000  0.6276000  3
     79     78     81     84     1  0.0000000  0.6694400  3
     78     81     84     85     1  0.0000000  0.6694400  3
     78     81     84     86     1  0.0000000  0.6694400  3
     99    103    101    102     4  180.0000771  4.6024000  2
    101     96     99    100     4  180.0000771  4.6024000  2
