; Exact Amber Lipid21 v1.0 topology converted by ParmEd
; Explicit [pairs] preserve Lipid21-specific 1-4 scaling.
; Conversion contract: amber-explicit-pairs-v2 (independent of parent defaults).

[ moleculetype ]
; Name nrexcl
POPS 3

[ atoms ]
; nr type resnr residue atom cgnr charge mass
1 L21_cD 1 POPS C16X 1 -0.12544700 12.010000
2 L21_hL 1 POPS H16X 2 0.02904700 1.008000
3 L21_hL 1 POPS H16Y 3 0.02904700 1.008000
4 L21_hL 1 POPS H16Z 4 0.02904700 1.008000
5 L21_cD 1 POPS C15X 5 0.01397500 12.010000
6 L21_hL 1 POPS H15X 6 0.00929200 1.008000
7 L21_hL 1 POPS H15Y 7 0.00929200 1.008000
8 L21_cD 1 POPS C14X 8 -0.02008600 12.010000
9 L21_hL 1 POPS H14X 9 0.01592900 1.008000
10 L21_hL 1 POPS H14Y 10 0.01592900 1.008000
11 L21_cD 1 POPS C13X 11 -0.03309600 12.010000
12 L21_hL 1 POPS H13X 12 0.01462100 1.008000
13 L21_hL 1 POPS H13Y 13 0.01462100 1.008000
14 L21_cD 1 POPS C12X 14 -0.02763300 12.010000
15 L21_hL 1 POPS H12X 15 0.01136800 1.008000
16 L21_hL 1 POPS H12Y 16 0.01136800 1.008000
17 L21_cD 1 POPS C11X 17 -0.02520600 12.010000
18 L21_hL 1 POPS H11X 18 0.01433400 1.008000
19 L21_hL 1 POPS H11Y 19 0.01433400 1.008000
20 L21_cD 1 POPS C10X 20 -0.02883100 12.010000
21 L21_hL 1 POPS H10X 21 0.01469100 1.008000
22 L21_hL 1 POPS H10Y 22 0.01469100 1.008000
23 L21_cD 1 POPS C9X 23 -0.03047200 12.010000
24 L21_hL 1 POPS H9X 24 0.01389700 1.008000
25 L21_hL 1 POPS H9Y 25 0.01389700 1.008000
26 L21_cD 1 POPS C8X 26 -0.01579300 12.010000
27 L21_hL 1 POPS H8X 27 0.00906700 1.008000
28 L21_hL 1 POPS H8Y 28 0.00906700 1.008000
29 L21_cD 1 POPS C7X 29 -0.01963000 12.010000
30 L21_hL 1 POPS H7X 30 0.01104100 1.008000
31 L21_hL 1 POPS H7Y 31 0.01104100 1.008000
32 L21_cD 1 POPS C6X 32 -0.02442700 12.010000
33 L21_hL 1 POPS H6X 33 0.01333400 1.008000
34 L21_hL 1 POPS H6Y 34 0.01333400 1.008000
35 L21_cD 1 POPS C5X 35 -0.02938700 12.010000
36 L21_hL 1 POPS H5X 36 0.01676300 1.008000
37 L21_hL 1 POPS H5Y 37 0.01676300 1.008000
38 L21_cD 1 POPS C4X 38 -0.03009900 12.010000
39 L21_hL 1 POPS H4X 39 0.02087700 1.008000
40 L21_hL 1 POPS H4Y 40 0.02087700 1.008000
41 L21_cD 1 POPS C3X 41 -0.00488200 12.010000
42 L21_hL 1 POPS H3X 42 0.01900700 1.008000
43 L21_hL 1 POPS H3Y 43 0.01900700 1.008000
44 L21_cD 1 POPS C2X 44 -0.14925900 12.010000
45 L21_hL 1 POPS H2X 45 0.04734500 1.008000
46 L21_hL 1 POPS H2Y 46 0.04734500 1.008000
47 L21_cC 1 POPS C11 47 0.88754900 12.010000
48 L21_oC 1 POPS O12 48 -0.66333100 16.000000
49 L21_oS 1 POPS O11 49 -0.57907300 16.000000
50 L21_cA 1 POPS C1 50 0.27117300 12.010000
51 L21_hE 1 POPS HR 51 0.03745400 1.008000
52 L21_hE 1 POPS HS 52 0.03745400 1.008000
53 L21_cA 1 POPS C2 53 0.44065000 12.010000
54 L21_hE 1 POPS HX 54 0.00247300 1.008000
55 L21_cA 1 POPS C3 55 0.01236600 12.010000
56 L21_hE 1 POPS HA 56 0.09734700 1.008000
57 L21_hE 1 POPS HB 57 0.09734700 1.008000
58 L21_oT 1 POPS O31 58 -0.55699200 16.000000
59 L21_pA 1 POPS P31 59 1.38020800 30.970000
60 L21_oT 1 POPS O32 60 -0.52012800 16.000000
61 L21_cA 1 POPS C31 61 0.06037500 12.010000
62 L21_hE 1 POPS H1A 62 0.09348400 1.008000
63 L21_hE 1 POPS H1B 63 0.09348400 1.008000
64 L21_cA 1 POPS C32 64 0.03944800 12.010000
65 L21_hX 1 POPS H2A 65 0.09054900 1.008000
66 L21_nA 1 POPS N31 66 -0.41432700 14.010000
67 L21_hN 1 POPS HN1A 67 0.35386600 1.008000
68 L21_hN 1 POPS HN1B 68 0.35386600 1.008000
69 L21_hN 1 POPS HN1C 69 0.35386600 1.008000
70 L21_cC 1 POPS C33 70 0.80986700 12.010000
71 L21_oP 1 POPS O33 71 -0.87792200 16.000000
72 L21_oP 1 POPS O34 72 -0.87792200 16.000000
73 L21_oS 1 POPS O21 73 -0.63438100 16.000000
74 L21_cC 1 POPS C21 74 0.89189700 12.010000
75 L21_oC 1 POPS O22 75 -0.65029100 16.000000
76 L21_oO 1 POPS O35 76 -0.81517800 16.000000
77 L21_oO 1 POPS O36 77 -0.81517800 16.000000
78 L21_cD 1 POPS C2Y 78 -0.14341800 12.010000
79 L21_hL 1 POPS H2U 79 0.04286100 1.008000
80 L21_hL 1 POPS H2V 80 0.04286100 1.008000
81 L21_cD 1 POPS C3Y 81 0.00161900 12.010000
82 L21_hL 1 POPS H3U 82 0.01952900 1.008000
83 L21_hL 1 POPS H3V 83 0.01952900 1.008000
84 L21_cD 1 POPS C4Y 84 -0.02296000 12.010000
85 L21_hL 1 POPS H4U 85 0.01813400 1.008000
86 L21_hL 1 POPS H4V 86 0.01813400 1.008000
87 L21_cD 1 POPS C5Y 87 -0.01669200 12.010000
88 L21_hL 1 POPS H5U 88 0.00869000 1.008000
89 L21_hL 1 POPS H5V 89 0.00869000 1.008000
90 L21_cD 1 POPS C6Y 90 -0.02378900 12.010000
91 L21_hL 1 POPS H6U 91 0.00926600 1.008000
92 L21_hL 1 POPS H6V 92 0.00926600 1.008000
93 L21_cD 1 POPS C7Y 93 -0.01749500 12.010000
94 L21_hL 1 POPS H7U 94 0.01959800 1.008000
95 L21_hL 1 POPS H7V 95 0.01959800 1.008000
96 L21_cD 1 POPS C8Y 96 0.03177500 12.010000
97 L21_hL 1 POPS H8U 97 0.03268500 1.008000
98 L21_hL 1 POPS H8V 98 0.03268500 1.008000
99 L21_cB 1 POPS C9Y 99 -0.24422800 12.010000
100 L21_hB 1 POPS H9U 100 0.13151200 1.008000
101 L21_cB 1 POPS C10Y 101 -0.23928400 12.010000
102 L21_hB 1 POPS H10U 102 0.12687800 1.008000
103 L21_cD 1 POPS C11Y 103 0.02905900 12.010000
104 L21_hL 1 POPS H11U 104 0.03353100 1.008000
105 L21_hL 1 POPS H11V 105 0.03353100 1.008000
106 L21_cD 1 POPS C12Y 106 -0.02635300 12.010000
107 L21_hL 1 POPS H12U 107 0.01971700 1.008000
108 L21_hL 1 POPS H12V 108 0.01971700 1.008000
109 L21_cD 1 POPS C13Y 109 -0.01825700 12.010000
110 L21_hL 1 POPS H13U 110 0.01380000 1.008000
111 L21_hL 1 POPS H13V 111 0.01380000 1.008000
112 L21_cD 1 POPS C14Y 112 -0.02484900 12.010000
113 L21_hL 1 POPS H14U 113 0.00857200 1.008000
114 L21_hL 1 POPS H14V 114 0.00857200 1.008000
115 L21_cD 1 POPS C15Y 115 -0.02324700 12.010000
116 L21_hL 1 POPS H15U 116 0.01040300 1.008000
117 L21_hL 1 POPS H15V 117 0.01040300 1.008000
118 L21_cD 1 POPS C16Y 118 -0.01248800 12.010000
119 L21_hL 1 POPS H16U 119 0.01365900 1.008000
120 L21_hL 1 POPS H16V 120 0.01365900 1.008000
121 L21_cD 1 POPS C17Y 121 0.00868400 12.010000
122 L21_hL 1 POPS H17U 122 0.01002600 1.008000
123 L21_hL 1 POPS H17V 123 0.01002600 1.008000
124 L21_cD 1 POPS C18Y 124 -0.11729000 12.010000
125 L21_hL 1 POPS H18U 125 0.02662700 1.008000
126 L21_hL 1 POPS H18V 126 0.02662700 1.008000
127 L21_hL 1 POPS H18W 127 0.02662700 1.008000

[ bonds ]
;    ai     aj funct         c0         c1         c2         c3
     44     47     1   0.15080 274721.440000
     41     44     1   0.15350 253634.080000
     38     41     1   0.15350 253634.080000
     35     38     1   0.15350 253634.080000
     32     35     1   0.15350 253634.080000
     29     32     1   0.15350 253634.080000
     26     29     1   0.15350 253634.080000
     23     26     1   0.15350 253634.080000
     20     23     1   0.15350 253634.080000
     17     20     1   0.15350 253634.080000
     14     17     1   0.15350 253634.080000
     11     14     1   0.15350 253634.080000
      8     11     1   0.15350 253634.080000
      5      8     1   0.15350 253634.080000
      1      5     1   0.15350 253634.080000
     74     75     1   0.12140 542246.400000
     74     78     1   0.15080 274721.440000
     73     74     1   0.13430 344175.840000
     70     76     1   0.12140 542246.400000
     70     77     1   0.12140 542246.400000
     64     66     1   0.14990 245684.480000
     64     70     1   0.15080 274721.440000
     61     64     1   0.15350 253634.080000
     60     61     1   0.14390 252295.200000
     59     60     1   0.16100 192464.000000
     59     71     1   0.14800 439320.000000
     59     72     1   0.14800 439320.000000
     58     59     1   0.16100 192464.000000
     55     58     1   0.14390 252295.200000
     53     55     1   0.15350 253634.080000
     53     73     1   0.14390 252295.200000
     50     53     1   0.15350 253634.080000
     49     50     1   0.14390 252295.200000
     47     48     1   0.12140 542246.400000
     47     49     1   0.13430 344175.840000
    121    124     1   0.15350 253634.080000
    118    121     1   0.15350 253634.080000
    115    118     1   0.15350 253634.080000
    112    115     1   0.15350 253634.080000
    109    112     1   0.15350 253634.080000
    106    109     1   0.15350 253634.080000
    103    106     1   0.15350 253634.080000
    101    103     1   0.15080 274721.440000
     99    101     1   0.13240 493460.960000
     96     99     1   0.15080 274721.440000
     93     96     1   0.15350 253634.080000
     90     93     1   0.15350 253634.080000
     87     90     1   0.15350 253634.080000
     84     87     1   0.15350 253634.080000
     81     84     1   0.15350 253634.080000
     78     81     1   0.15350 253634.080000
     44     45     1   0.10920 282252.640000
     44     46     1   0.10920 282252.640000
     41     42     1   0.10920 282252.640000
     41     43     1   0.10920 282252.640000
     38     39     1   0.10920 282252.640000
     38     40     1   0.10920 282252.640000
     35     36     1   0.10920 282252.640000
     35     37     1   0.10920 282252.640000
     32     33     1   0.10920 282252.640000
     32     34     1   0.10920 282252.640000
     29     30     1   0.10920 282252.640000
     29     31     1   0.10920 282252.640000
     26     27     1   0.10920 282252.640000
     26     28     1   0.10920 282252.640000
     23     24     1   0.10920 282252.640000
     23     25     1   0.10920 282252.640000
     20     21     1   0.10920 282252.640000
     20     22     1   0.10920 282252.640000
     17     18     1   0.10920 282252.640000
     17     19     1   0.10920 282252.640000
     14     15     1   0.10920 282252.640000
     14     16     1   0.10920 282252.640000
     11     12     1   0.10920 282252.640000
     11     13     1   0.10920 282252.640000
      8      9     1   0.10920 282252.640000
      8     10     1   0.10920 282252.640000
      5      6     1   0.10920 282252.640000
      5      7     1   0.10920 282252.640000
      1      2     1   0.10920 282252.640000
      1      3     1   0.10920 282252.640000
      1      4     1   0.10920 282252.640000
     66     67     1   0.10330 308779.200000
     66     68     1   0.10330 308779.200000
     66     69     1   0.10330 308779.200000
     64     65     1   0.10910 283424.160000
     61     62     1   0.10930 281081.120000
     61     63     1   0.10930 281081.120000
     55     56     1   0.10930 281081.120000
     55     57     1   0.10930 281081.120000
     53     54     1   0.10930 281081.120000
     50     51     1   0.10930 281081.120000
     50     52     1   0.10930 281081.120000
    124    125     1   0.10920 282252.640000
    124    126     1   0.10920 282252.640000
    124    127     1   0.10920 282252.640000
    121    122     1   0.10920 282252.640000
    121    123     1   0.10920 282252.640000
    118    119     1   0.10920 282252.640000
    118    120     1   0.10920 282252.640000
    115    116     1   0.10920 282252.640000
    115    117     1   0.10920 282252.640000
    112    113     1   0.10920 282252.640000
    112    114     1   0.10920 282252.640000
    109    110     1   0.10920 282252.640000
    109    111     1   0.10920 282252.640000
    106    107     1   0.10920 282252.640000
    106    108     1   0.10920 282252.640000
    103    104     1   0.10920 282252.640000
    103    105     1   0.10920 282252.640000
    101    102     1   0.10870 288110.240000
     99    100     1   0.10870 288110.240000
     96     97     1   0.10920 282252.640000
     96     98     1   0.10920 282252.640000
     93     94     1   0.10920 282252.640000
     93     95     1   0.10920 282252.640000
     90     91     1   0.10920 282252.640000
     90     92     1   0.10920 282252.640000
     87     88     1   0.10920 282252.640000
     87     89     1   0.10920 282252.640000
     84     85     1   0.10920 282252.640000
     84     86     1   0.10920 282252.640000
     81     82     1   0.10920 282252.640000
     81     83     1   0.10920 282252.640000
     78     79     1   0.10920 282252.640000
     78     80     1   0.10920 282252.640000


[ pairs ]
; ai aj funct fudgeQQ qi qj sigma epsilon; source-specific LJ and charge scaling
1 9 2 0.83333333333333 -0.12544700010427 0.015929000016463 0.30005468824211 0.069194303392389
1 10 2 0.83333333333333 -0.12544700010427 0.015929000016463 0.30005468824211 0.069194303392389
1 11 2 0.83333333333333 -0.12544700010427 -0.033096000010976 0.33996695084507 0.076288266607901
2 6 2 0.83333333333333 0.029046999994512 0.0092920000219511 0.26014242576773 0.020919999936173
2 7 2 0.83333333333333 0.029046999994512 0.0092920000219511 0.26014242576773 0.020919999936173
2 8 2 0.83333333333333 0.029046999994512 -0.020086000010976 0.30005468824211 0.069194303392389
3 6 2 0.83333333333333 0.029046999994512 0.0092920000219511 0.26014242576773 0.020919999936173
3 7 2 0.83333333333333 0.029046999994512 0.0092920000219511 0.26014242576773 0.020919999936173
3 8 2 0.83333333333333 0.029046999994512 -0.020086000010976 0.30005468824211 0.069194303392389
4 6 2 0.83333333333333 0.029046999994512 0.0092920000219511 0.26014242576773 0.020919999936173
4 7 2 0.83333333333333 0.029046999994512 0.0092920000219511 0.26014242576773 0.020919999936173
4 8 2 0.83333333333333 0.029046999994512 -0.020086000010976 0.30005468824211 0.069194303392389
5 12 2 0.83333333333333 0.013974999972561 0.014620999983537 0.30005468824211 0.069194303392389
5 13 2 0.83333333333333 0.013974999972561 0.014620999983537 0.30005468824211 0.069194303392389
5 14 2 0.83333333333333 0.013974999972561 -0.027633000005488 0.33996695084507 0.076288266607901
6 9 2 0.83333333333333 0.0092920000219511 0.015929000016463 0.26014242576773 0.020919999936173
6 10 2 0.83333333333333 0.0092920000219511 0.015929000016463 0.26014242576773 0.020919999936173
6 11 2 0.83333333333333 0.0092920000219511 -0.033096000010976 0.30005468824211 0.069194303392389
7 9 2 0.83333333333333 0.0092920000219511 0.015929000016463 0.26014242576773 0.020919999936173
7 10 2 0.83333333333333 0.0092920000219511 0.015929000016463 0.26014242576773 0.020919999936173
7 11 2 0.83333333333333 0.0092920000219511 -0.033096000010976 0.30005468824211 0.069194303392389
8 15 2 0.83333333333333 -0.020086000010976 0.011367999978049 0.30005468824211 0.069194303392389
8 16 2 0.83333333333333 -0.020086000010976 0.011367999978049 0.30005468824211 0.069194303392389
8 17 2 0.83333333333333 -0.020086000010976 -0.025206000010976 0.33996695084507 0.076288266607901
9 12 2 0.83333333333333 0.015929000016463 0.014620999983537 0.26014242576773 0.020919999936173
9 13 2 0.83333333333333 0.015929000016463 0.014620999983537 0.26014242576773 0.020919999936173
9 14 2 0.83333333333333 0.015929000016463 -0.027633000005488 0.30005468824211 0.069194303392389
10 12 2 0.83333333333333 0.015929000016463 0.014620999983537 0.26014242576773 0.020919999936173
10 13 2 0.83333333333333 0.015929000016463 0.014620999983537 0.26014242576773 0.020919999936173
10 14 2 0.83333333333333 0.015929000016463 -0.027633000005488 0.30005468824211 0.069194303392389
11 18 2 0.83333333333333 -0.033096000010976 0.014333999989024 0.30005468824211 0.069194303392389
11 19 2 0.83333333333333 -0.033096000010976 0.014333999989024 0.30005468824211 0.069194303392389
11 20 2 0.83333333333333 -0.033096000010976 -0.028830999983537 0.33996695084507 0.076288266607901
12 15 2 0.83333333333333 0.014620999983537 0.011367999978049 0.26014242576773 0.020919999936173
12 16 2 0.83333333333333 0.014620999983537 0.011367999978049 0.26014242576773 0.020919999936173
12 17 2 0.83333333333333 0.014620999983537 -0.025206000010976 0.30005468824211 0.069194303392389
13 15 2 0.83333333333333 0.014620999983537 0.011367999978049 0.26014242576773 0.020919999936173
13 16 2 0.83333333333333 0.014620999983537 0.011367999978049 0.26014242576773 0.020919999936173
13 17 2 0.83333333333333 0.014620999983537 -0.025206000010976 0.30005468824211 0.069194303392389
14 21 2 0.83333333333333 -0.027633000005488 0.014690999983537 0.30005468824211 0.069194303392389
14 22 2 0.83333333333333 -0.027633000005488 0.014690999983537 0.30005468824211 0.069194303392389
14 23 2 0.83333333333333 -0.027633000005488 -0.030472000021951 0.33996695084507 0.076288266607901
15 18 2 0.83333333333333 0.011367999978049 0.014333999989024 0.26014242576773 0.020919999936173
15 19 2 0.83333333333333 0.011367999978049 0.014333999989024 0.26014242576773 0.020919999936173
15 20 2 0.83333333333333 0.011367999978049 -0.028830999983537 0.30005468824211 0.069194303392389
16 18 2 0.83333333333333 0.011367999978049 0.014333999989024 0.26014242576773 0.020919999936173
16 19 2 0.83333333333333 0.011367999978049 0.014333999989024 0.26014242576773 0.020919999936173
16 20 2 0.83333333333333 0.011367999978049 -0.028830999983537 0.30005468824211 0.069194303392389
17 24 2 0.83333333333333 -0.025206000010976 0.013896999994512 0.30005468824211 0.069194303392389
17 25 2 0.83333333333333 -0.025206000010976 0.013896999994512 0.30005468824211 0.069194303392389
17 26 2 0.83333333333333 -0.025206000010976 -0.015793000005488 0.33996695084507 0.076288266607901
18 21 2 0.83333333333333 0.014333999989024 0.014690999983537 0.26014242576773 0.020919999936173
18 22 2 0.83333333333333 0.014333999989024 0.014690999983537 0.26014242576773 0.020919999936173
18 23 2 0.83333333333333 0.014333999989024 -0.030472000021951 0.30005468824211 0.069194303392389
19 21 2 0.83333333333333 0.014333999989024 0.014690999983537 0.26014242576773 0.020919999936173
19 22 2 0.83333333333333 0.014333999989024 0.014690999983537 0.26014242576773 0.020919999936173
19 23 2 0.83333333333333 0.014333999989024 -0.030472000021951 0.30005468824211 0.069194303392389
20 27 2 0.83333333333333 -0.028830999983537 0.0090669999945122 0.30005468824211 0.069194303392389
20 28 2 0.83333333333333 -0.028830999983537 0.0090669999945122 0.30005468824211 0.069194303392389
20 29 2 0.83333333333333 -0.028830999983537 -0.01963 0.33996695084507 0.076288266607901
21 24 2 0.83333333333333 0.014690999983537 0.013896999994512 0.26014242576773 0.020919999936173
21 25 2 0.83333333333333 0.014690999983537 0.013896999994512 0.26014242576773 0.020919999936173
21 26 2 0.83333333333333 0.014690999983537 -0.015793000005488 0.30005468824211 0.069194303392389
22 24 2 0.83333333333333 0.014690999983537 0.013896999994512 0.26014242576773 0.020919999936173
22 25 2 0.83333333333333 0.014690999983537 0.013896999994512 0.26014242576773 0.020919999936173
22 26 2 0.83333333333333 0.014690999983537 -0.015793000005488 0.30005468824211 0.069194303392389
23 30 2 0.83333333333333 -0.030472000021951 0.011040999983537 0.30005468824211 0.069194303392389
23 31 2 0.83333333333333 -0.030472000021951 0.011040999983537 0.30005468824211 0.069194303392389
23 32 2 0.83333333333333 -0.030472000021951 -0.024426999994512 0.33996695084507 0.076288266607901
24 27 2 0.83333333333333 0.013896999994512 0.0090669999945122 0.26014242576773 0.020919999936173
24 28 2 0.83333333333333 0.013896999994512 0.0090669999945122 0.26014242576773 0.020919999936173
24 29 2 0.83333333333333 0.013896999994512 -0.01963 0.30005468824211 0.069194303392389
25 27 2 0.83333333333333 0.013896999994512 0.0090669999945122 0.26014242576773 0.020919999936173
25 28 2 0.83333333333333 0.013896999994512 0.0090669999945122 0.26014242576773 0.020919999936173
25 29 2 0.83333333333333 0.013896999994512 -0.01963 0.30005468824211 0.069194303392389
26 33 2 0.83333333333333 -0.015793000005488 0.013333999989024 0.30005468824211 0.069194303392389
26 34 2 0.83333333333333 -0.015793000005488 0.013333999989024 0.30005468824211 0.069194303392389
26 35 2 0.83333333333333 -0.015793000005488 -0.029386999994512 0.33996695084507 0.076288266607901
27 30 2 0.83333333333333 0.0090669999945122 0.011040999983537 0.26014242576773 0.020919999936173
27 31 2 0.83333333333333 0.0090669999945122 0.011040999983537 0.26014242576773 0.020919999936173
27 32 2 0.83333333333333 0.0090669999945122 -0.024426999994512 0.30005468824211 0.069194303392389
28 30 2 0.83333333333333 0.0090669999945122 0.011040999983537 0.26014242576773 0.020919999936173
28 31 2 0.83333333333333 0.0090669999945122 0.011040999983537 0.26014242576773 0.020919999936173
28 32 2 0.83333333333333 0.0090669999945122 -0.024426999994512 0.30005468824211 0.069194303392389
29 36 2 0.83333333333333 -0.01963 0.016763000005488 0.30005468824211 0.069194303392389
29 37 2 0.83333333333333 -0.01963 0.016763000005488 0.30005468824211 0.069194303392389
29 38 2 0.83333333333333 -0.01963 -0.030099000016463 0.33996695084507 0.076288266607901
30 33 2 0.83333333333333 0.011040999983537 0.013333999989024 0.26014242576773 0.020919999936173
30 34 2 0.83333333333333 0.011040999983537 0.013333999989024 0.26014242576773 0.020919999936173
30 35 2 0.83333333333333 0.011040999983537 -0.029386999994512 0.30005468824211 0.069194303392389
31 33 2 0.83333333333333 0.011040999983537 0.013333999989024 0.26014242576773 0.020919999936173
31 34 2 0.83333333333333 0.011040999983537 0.013333999989024 0.26014242576773 0.020919999936173
31 35 2 0.83333333333333 0.011040999983537 -0.029386999994512 0.30005468824211 0.069194303392389
32 39 2 0.83333333333333 -0.024426999994512 0.020876999994512 0.30005468824211 0.069194303392389
32 40 2 0.83333333333333 -0.024426999994512 0.020876999994512 0.30005468824211 0.069194303392389
32 41 2 0.83333333333333 -0.024426999994512 -0.004882 0.33996695084507 0.076288266607901
33 36 2 0.83333333333333 0.013333999989024 0.016763000005488 0.26014242576773 0.020919999936173
33 37 2 0.83333333333333 0.013333999989024 0.016763000005488 0.26014242576773 0.020919999936173
33 38 2 0.83333333333333 0.013333999989024 -0.030099000016463 0.30005468824211 0.069194303392389
34 36 2 0.83333333333333 0.013333999989024 0.016763000005488 0.26014242576773 0.020919999936173
34 37 2 0.83333333333333 0.013333999989024 0.016763000005488 0.26014242576773 0.020919999936173
34 38 2 0.83333333333333 0.013333999989024 -0.030099000016463 0.30005468824211 0.069194303392389
35 42 2 0.83333333333333 -0.029386999994512 0.019006999994512 0.30005468824211 0.069194303392389
35 43 2 0.83333333333333 -0.029386999994512 0.019006999994512 0.30005468824211 0.069194303392389
35 44 2 0.83333333333333 -0.029386999994512 -0.14925900023597 0.33996695084507 0.076288266607901
36 39 2 0.83333333333333 0.016763000005488 0.020876999994512 0.26014242576773 0.020919999936173
36 40 2 0.83333333333333 0.016763000005488 0.020876999994512 0.26014242576773 0.020919999936173
36 41 2 0.83333333333333 0.016763000005488 -0.004882 0.30005468824211 0.069194303392389
37 39 2 0.83333333333333 0.016763000005488 0.020876999994512 0.26014242576773 0.020919999936173
37 40 2 0.83333333333333 0.016763000005488 0.020876999994512 0.26014242576773 0.020919999936173
37 41 2 0.83333333333333 0.016763000005488 -0.004882 0.30005468824211 0.069194303392389
38 45 2 0.83333333333333 -0.030099000016463 0.047345000027439 0.30005468824211 0.069194303392389
38 46 2 0.83333333333333 -0.030099000016463 0.047345000027439 0.30005468824211 0.069194303392389
38 47 2 0.83333333333333 -0.030099000016463 0.88754899765672 0.33996695087407 0.20291752963184
39 42 2 0.83333333333333 0.020876999994512 0.019006999994512 0.26014242576773 0.020919999936173
39 43 2 0.83333333333333 0.020876999994512 0.019006999994512 0.26014242576773 0.020919999936173
39 44 2 0.83333333333333 0.020876999994512 -0.14925900023597 0.30005468824211 0.069194303392389
40 42 2 0.83333333333333 0.020876999994512 0.019006999994512 0.26014242576773 0.020919999936173
40 43 2 0.83333333333333 0.020876999994512 0.019006999994512 0.26014242576773 0.020919999936173
40 44 2 0.83333333333333 0.020876999994512 -0.14925900023597 0.30005468824211 0.069194303392389
41 48 2 0.83333333333333 -0.004882 -0.66333100102622 0.31797957047595 0.31708813257529
41 49 2 0.83333333333333 -0.004882 -0.57907299846891 0.31998409262799 0.28529542121767
42 45 2 0.83333333333333 0.019006999994512 0.047345000027439 0.26014242576773 0.020919999936173
42 46 2 0.83333333333333 0.019006999994512 0.047345000027439 0.26014242576773 0.020919999936173
42 47 2 0.83333333333333 0.019006999994512 0.88754899765672 0.30005468825729 0.061349482798597
43 45 2 0.83333333333333 0.019006999994512 0.047345000027439 0.26014242576773 0.020919999936173
43 46 2 0.83333333333333 0.019006999994512 0.047345000027439 0.26014242576773 0.020919999936173
43 47 2 0.83333333333333 0.019006999994512 0.88754899765672 0.30005468825729 0.061349482798597
44 50 2 0.83333333333333 -0.14925900023597 0.27117300011524 0.33996695084507 0.2288647998237
45 48 2 0.83333333333333 0.047345000027439 -0.66333100102622 0.27806730790153 0.095867483596702
45 49 2 0.83333333333333 0.047345000027439 -0.57907299846891 0.2800718300513 0.086255369632554
46 48 2 0.83333333333333 0.047345000027439 -0.66333100102622 0.27806730790153 0.095867483596702
46 49 2 0.83333333333333 0.047345000027439 -0.57907299846891 0.2800718300513 0.086255369632554
47 51 2 0.83333333333333 0.88754899765672 0.037453999989024 0.29355112761526 0.076870681673027
47 52 2 0.83333333333333 0.88754899765672 0.037453999989024 0.29355112761526 0.076870681673027
47 53 2 0.83333333333333 0.88754899765672 0.44064999972561 0.33996695087407 0.20291752963184
48 50 2 0.83333333333333 -0.66333100102622 0.27117300011524 0.31797957047595 0.31708813257529
49 54 2 0.83333333333333 -0.57907299846891 0.002473 0.27356826939641 0.10807766839674
49 55 2 0.83333333333333 -0.57907299846891 0.012366000010976 0.31998409262799 0.28529542121767
49 73 2 0.83333333333333 -0.57907299846891 -0.63438100020305 0.30000123432245 0.35564000022068
50 56 2 0.83333333333333 0.27117300011524 0.097347000104268 0.29355112776543 0.086700213146672
50 57 2 0.83333333333333 0.27117300011524 0.097347000104268 0.29355112776543 0.086700213146672
50 58 2 0.83333333333333 0.27117300011524 -0.55699199881464 0.31998409262799 0.28529542121767
50 74 2 0.83333333333333 0.27117300011524 0.89189699982988 0.33996695087407 0.20291752963184
51 54 2 0.83333333333333 0.037453999989024 0.002473 0.24713530426422 0.032844400205981
51 55 2 0.83333333333333 0.037453999989024 0.012366000010976 0.29355112776543 0.086700213146672
51 73 2 0.83333333333333 0.037453999989024 -0.63438100020305 0.27356826939641 0.10807766839674
52 54 2 0.83333333333333 0.037453999989024 0.002473 0.24713530426422 0.032844400205981
52 55 2 0.83333333333333 0.037453999989024 0.012366000010976 0.29355112776543 0.086700213146672
52 73 2 0.83333333333333 0.037453999989024 -0.63438100020305 0.27356826939641 0.10807766839674
53 59 2 0.83333333333333 0.44064999972561 1.3802079978927 0.35707220617836 0.30944633210394
53 75 2 0.83333333333333 0.44064999972561 -0.65029100058719 0.31797957047595 0.31708813257529
53 78 2 0.83333333333333 0.44064999972561 -0.14341799992317 0.33996695084507 0.2288647998237
54 56 2 0.83333333333333 0.002473 0.097347000104268 0.24713530426422 0.032844400205981
54 57 2 0.83333333333333 0.002473 0.097347000104268 0.24713530426422 0.032844400205981
54 58 2 0.83333333333333 0.002473 -0.55699199881464 0.27356826939641 0.10807766839674
54 74 2 0.83333333333333 0.002473 0.89189699982988 0.29355112761526 0.076870681673027
55 60 2 0.83333333333333 0.012366000010976 -0.52012799975854 0.31998409262799 0.28529542121767
55 71 2 0.83333333333333 0.012366000010976 -0.87792200216219 0.31797957047595 0.31708813257529
55 72 2 0.83333333333333 0.012366000010976 -0.87792200216219 0.31797957047595 0.31708813257529
55 74 2 0.83333333333333 0.012366000010976 0.89189699982988 0.33996695087407 0.20291752963184
56 59 2 0.83333333333333 0.097347000104268 1.3802079978927 0.31065638299277 0.11722669057481
56 73 2 0.83333333333333 0.097347000104268 -0.63438100020305 0.27356826939641 0.10807766839674
57 59 2 0.83333333333333 0.097347000104268 1.3802079978927 0.31065638299277 0.11722669057481
57 73 2 0.83333333333333 0.097347000104268 -0.63438100020305 0.27356826939641 0.10807766839674
58 61 2 0.83333333333333 -0.55699199881464 0.060374999862805 0.31998409262799 0.28529542121767
58 73 2 0.83333333333333 -0.55699199881464 -0.63438100020305 0.30000123432245 0.35564000022068
59 62 2 0.83333333333333 1.3802079978927 0.093483999824391 0.31065638299277 0.11722669057481
59 63 2 0.83333333333333 1.3802079978927 0.093483999824391 0.31065638299277 0.11722669057481
59 64 2 0.83333333333333 1.3802079978927 0.039447999978049 0.35707220617836 0.30944633210394
60 65 2 0.83333333333333 -0.52012799975854 0.09054899985183 0.24799947608237 0.10807766872372
60 66 2 0.83333333333333 -0.52012799975854 -0.41432699988476 0.31250054330942 0.35564000053052
60 70 2 0.83333333333333 -0.52012799975854 0.80986699812867 0.31998409257159 0.25295039792155
61 67 2 0.83333333333333 0.060374999862805 0.35386599990122 0.22343739849812 0.086700213704004
61 68 2 0.83333333333333 0.060374999862805 0.35386599990122 0.22343739849812 0.086700213704004
61 69 2 0.83333333333333 0.060374999862805 0.35386599990122 0.22343739849812 0.086700213704004
61 71 2 0.83333333333333 0.060374999862805 -0.87792200216219 0.31797957047595 0.31708813257529
61 72 2 0.83333333333333 0.060374999862805 -0.87792200216219 0.31797957047595 0.31708813257529
61 76 2 0.83333333333333 0.060374999862805 -0.81517800167926 0.31797957047595 0.31708813257529
61 77 2 0.83333333333333 0.060374999862805 -0.81517800167926 0.31797957047595 0.31708813257529
62 65 2 0.83333333333333 0.093483999824391 0.09054899985183 0.22156651118302 0.032844400019638
62 66 2 0.83333333333333 0.093483999824391 -0.41432699988476 0.2860675785499 0.10807766765337
62 70 2 0.83333333333333 0.093483999824391 0.80986699812867 0.29355112761526 0.076870681673027
63 65 2 0.83333333333333 0.093483999824391 0.09054899985183 0.22156651118302 0.032844400019638
63 66 2 0.83333333333333 0.093483999824391 -0.41432699988476 0.2860675785499 0.10807766765337
63 70 2 0.83333333333333 0.093483999824391 0.80986699812867 0.29355112761526 0.076870681673027
65 67 2 0.83333333333333 0.09054899985183 0.35386599990122 0.1514527820581 0.032844400050852
65 68 2 0.83333333333333 0.09054899985183 0.35386599990122 0.1514527820581 0.032844400050852
65 69 2 0.83333333333333 0.09054899985183 0.35386599990122 0.1514527820581 0.032844400050852
65 76 2 0.83333333333333 0.09054899985183 -0.81517800167926 0.24599495407288 0.12012161243268
65 77 2 0.83333333333333 0.09054899985183 -0.81517800167926 0.24599495407288 0.12012161243268
66 76 2 0.83333333333333 -0.41432699988476 -0.81517800167926 0.31049602120171 0.39527176105277
66 77 2 0.83333333333333 -0.41432699988476 -0.81517800167926 0.31049602120171 0.39527176105277
67 70 2 0.83333333333333 0.35386599990122 0.80986699812867 0.22343739851452 0.076870681768142
68 70 2 0.83333333333333 0.35386599990122 0.80986699812867 0.22343739851452 0.076870681768142
69 70 2 0.83333333333333 0.35386599990122 0.80986699812867 0.22343739851452 0.076870681768142
73 79 2 0.83333333333333 -0.63438100020305 0.042860999983537 0.2800718300513 0.086255369632554
73 80 2 0.83333333333333 -0.63438100020305 0.042860999983537 0.2800718300513 0.086255369632554
73 81 2 0.83333333333333 -0.63438100020305 0.001619 0.31998409262799 0.28529542121767
74 82 2 0.83333333333333 0.89189699982988 0.019529000016463 0.30005468825729 0.061349482798597
74 83 2 0.83333333333333 0.89189699982988 0.019529000016463 0.30005468825729 0.061349482798597
74 84 2 0.83333333333333 0.89189699982988 -0.02296 0.33996695087407 0.20291752963184
75 79 2 0.83333333333333 -0.65029100058719 0.042860999983537 0.27806730790153 0.095867483596702
75 80 2 0.83333333333333 -0.65029100058719 0.042860999983537 0.27806730790153 0.095867483596702
75 81 2 0.83333333333333 -0.65029100058719 0.001619 0.31797957047595 0.31708813257529
78 85 2 0.83333333333333 -0.14341799992317 0.018133999989024 0.30005468824211 0.069194303392389
78 86 2 0.83333333333333 -0.14341799992317 0.018133999989024 0.30005468824211 0.069194303392389
78 87 2 0.83333333333333 -0.14341799992317 -0.016692000021951 0.33996695084507 0.076288266607901
79 82 2 0.83333333333333 0.042860999983537 0.019529000016463 0.26014242576773 0.020919999936173
79 83 2 0.83333333333333 0.042860999983537 0.019529000016463 0.26014242576773 0.020919999936173
79 84 2 0.83333333333333 0.042860999983537 -0.02296 0.30005468824211 0.069194303392389
80 82 2 0.83333333333333 0.042860999983537 0.019529000016463 0.26014242576773 0.020919999936173
80 83 2 0.83333333333333 0.042860999983537 0.019529000016463 0.26014242576773 0.020919999936173
80 84 2 0.83333333333333 0.042860999983537 -0.02296 0.30005468824211 0.069194303392389
81 88 2 0.83333333333333 0.001619 0.00869 0.30005468824211 0.069194303392389
81 89 2 0.83333333333333 0.001619 0.00869 0.30005468824211 0.069194303392389
81 90 2 0.83333333333333 0.001619 -0.023789000016463 0.33996695084507 0.076288266607901
82 85 2 0.83333333333333 0.019529000016463 0.018133999989024 0.26014242576773 0.020919999936173
82 86 2 0.83333333333333 0.019529000016463 0.018133999989024 0.26014242576773 0.020919999936173
82 87 2 0.83333333333333 0.019529000016463 -0.016692000021951 0.30005468824211 0.069194303392389
83 85 2 0.83333333333333 0.019529000016463 0.018133999989024 0.26014242576773 0.020919999936173
83 86 2 0.83333333333333 0.019529000016463 0.018133999989024 0.26014242576773 0.020919999936173
83 87 2 0.83333333333333 0.019529000016463 -0.016692000021951 0.30005468824211 0.069194303392389
84 91 2 0.83333333333333 -0.02296 0.0092660000109756 0.30005468824211 0.069194303392389
84 92 2 0.83333333333333 -0.02296 0.0092660000109756 0.30005468824211 0.069194303392389
84 93 2 0.83333333333333 -0.02296 -0.017495000027439 0.33996695084507 0.076288266607901
85 88 2 0.83333333333333 0.018133999989024 0.00869 0.26014242576773 0.020919999936173
85 89 2 0.83333333333333 0.018133999989024 0.00869 0.26014242576773 0.020919999936173
85 90 2 0.83333333333333 0.018133999989024 -0.023789000016463 0.30005468824211 0.069194303392389
86 88 2 0.83333333333333 0.018133999989024 0.00869 0.26014242576773 0.020919999936173
86 89 2 0.83333333333333 0.018133999989024 0.00869 0.26014242576773 0.020919999936173
86 90 2 0.83333333333333 0.018133999989024 -0.023789000016463 0.30005468824211 0.069194303392389
87 94 2 0.83333333333333 -0.016692000021951 0.019597999978049 0.30005468824211 0.069194303392389
87 95 2 0.83333333333333 -0.016692000021951 0.019597999978049 0.30005468824211 0.069194303392389
87 96 2 0.83333333333333 -0.016692000021951 0.031775000027439 0.33996695084507 0.076288266607901
88 91 2 0.83333333333333 0.00869 0.0092660000109756 0.26014242576773 0.020919999936173
88 92 2 0.83333333333333 0.00869 0.0092660000109756 0.26014242576773 0.020919999936173
88 93 2 0.83333333333333 0.00869 -0.017495000027439 0.30005468824211 0.069194303392389
89 91 2 0.83333333333333 0.00869 0.0092660000109756 0.26014242576773 0.020919999936173
89 92 2 0.83333333333333 0.00869 0.0092660000109756 0.26014242576773 0.020919999936173
89 93 2 0.83333333333333 0.00869 -0.017495000027439 0.30005468824211 0.069194303392389
90 97 2 0.83333333333333 -0.023789000016463 0.032685000027439 0.30005468824211 0.069194303392389
90 98 2 0.83333333333333 -0.023789000016463 0.032685000027439 0.30005468824211 0.069194303392389
90 99 2 0.83333333333333 -0.023789000016463 -0.24422799975854 0.33996695087407 0.20291752963184
91 94 2 0.83333333333333 0.0092660000109756 0.019597999978049 0.26014242576773 0.020919999936173
91 95 2 0.83333333333333 0.0092660000109756 0.019597999978049 0.26014242576773 0.020919999936173
91 96 2 0.83333333333333 0.0092660000109756 0.031775000027439 0.30005468824211 0.069194303392389
92 94 2 0.83333333333333 0.0092660000109756 0.019597999978049 0.26014242576773 0.020919999936173
92 95 2 0.83333333333333 0.0092660000109756 0.019597999978049 0.26014242576773 0.020919999936173
92 96 2 0.83333333333333 0.0092660000109756 0.031775000027439 0.30005468824211 0.069194303392389
93 100 2 0.83333333333333 -0.017495000027439 0.13151200013171 0.28134581515096 0.057892107742859
93 101 2 0.83333333333333 -0.017495000027439 -0.23928399982439 0.33996695087407 0.20291752963184
94 97 2 0.83333333333333 0.019597999978049 0.032685000027439 0.26014242576773 0.020919999936173
94 98 2 0.83333333333333 0.019597999978049 0.032685000027439 0.26014242576773 0.020919999936173
94 99 2 0.83333333333333 0.019597999978049 -0.24422799975854 0.30005468825729 0.061349482798597
95 97 2 0.83333333333333 0.019597999978049 0.032685000027439 0.26014242576773 0.020919999936173
95 98 2 0.83333333333333 0.019597999978049 0.032685000027439 0.26014242576773 0.020919999936173
95 99 2 0.83333333333333 0.019597999978049 -0.24422799975854 0.30005468825729 0.061349482798597
96 102 2 0.83333333333333 0.031775000027439 0.12687800003293 0.28134581515096 0.057892107742859
96 103 2 0.83333333333333 0.031775000027439 0.029059000016463 0.33996695084507 0.2288647998237
97 100 2 0.83333333333333 0.032685000027439 0.13151200013171 0.24143355271439 0.017502927720476
97 101 2 0.83333333333333 0.032685000027439 -0.23928399982439 0.30005468825729 0.061349482798597
98 100 2 0.83333333333333 0.032685000027439 0.13151200013171 0.24143355271439 0.017502927720476
98 101 2 0.83333333333333 0.032685000027439 -0.23928399982439 0.30005468825729 0.061349482798597
99 104 2 0.83333333333333 -0.24422799975854 0.033530999983537 0.30005468825729 0.061349482798597
99 105 2 0.83333333333333 -0.24422799975854 0.033530999983537 0.30005468825729 0.061349482798597
99 106 2 0.83333333333333 -0.24422799975854 -0.026353000005488 0.33996695087407 0.20291752963184
100 102 2 0.83333333333333 0.13151200013171 0.12687800003293 0.22272467949703 0.014644000015013
100 103 2 0.83333333333333 0.13151200013171 0.029059000016463 0.28134581515096 0.057892107742859
101 107 2 0.83333333333333 -0.23928399982439 0.019716999994512 0.30005468825729 0.061349482798597
101 108 2 0.83333333333333 -0.23928399982439 0.019716999994512 0.30005468825729 0.061349482798597
101 109 2 0.83333333333333 -0.23928399982439 -0.018256999994512 0.33996695087407 0.20291752963184
102 104 2 0.83333333333333 0.12687800003293 0.033530999983537 0.24143355271439 0.017502927720476
102 105 2 0.83333333333333 0.12687800003293 0.033530999983537 0.24143355271439 0.017502927720476
102 106 2 0.83333333333333 0.12687800003293 -0.026353000005488 0.28134581515096 0.057892107742859
103 110 2 0.83333333333333 0.029059000016463 0.0138 0.30005468824211 0.069194303392389
103 111 2 0.83333333333333 0.029059000016463 0.0138 0.30005468824211 0.069194303392389
103 112 2 0.83333333333333 0.029059000016463 -0.024849000016463 0.33996695084507 0.076288266607901
104 107 2 0.83333333333333 0.033530999983537 0.019716999994512 0.26014242576773 0.020919999936173
104 108 2 0.83333333333333 0.033530999983537 0.019716999994512 0.26014242576773 0.020919999936173
104 109 2 0.83333333333333 0.033530999983537 -0.018256999994512 0.30005468824211 0.069194303392389
105 107 2 0.83333333333333 0.033530999983537 0.019716999994512 0.26014242576773 0.020919999936173
105 108 2 0.83333333333333 0.033530999983537 0.019716999994512 0.26014242576773 0.020919999936173
105 109 2 0.83333333333333 0.033530999983537 -0.018256999994512 0.30005468824211 0.069194303392389
106 113 2 0.83333333333333 -0.026353000005488 0.0085720000219511 0.30005468824211 0.069194303392389
106 114 2 0.83333333333333 -0.026353000005488 0.0085720000219511 0.30005468824211 0.069194303392389
106 115 2 0.83333333333333 -0.026353000005488 -0.023246999994512 0.33996695084507 0.076288266607901
107 110 2 0.83333333333333 0.019716999994512 0.0138 0.26014242576773 0.020919999936173
107 111 2 0.83333333333333 0.019716999994512 0.0138 0.26014242576773 0.020919999936173
107 112 2 0.83333333333333 0.019716999994512 -0.024849000016463 0.30005468824211 0.069194303392389
108 110 2 0.83333333333333 0.019716999994512 0.0138 0.26014242576773 0.020919999936173
108 111 2 0.83333333333333 0.019716999994512 0.0138 0.26014242576773 0.020919999936173
108 112 2 0.83333333333333 0.019716999994512 -0.024849000016463 0.30005468824211 0.069194303392389
109 116 2 0.83333333333333 -0.018256999994512 0.010403000005488 0.30005468824211 0.069194303392389
109 117 2 0.83333333333333 -0.018256999994512 0.010403000005488 0.30005468824211 0.069194303392389
109 118 2 0.83333333333333 -0.018256999994512 -0.012487999978049 0.33996695084507 0.076288266607901
110 113 2 0.83333333333333 0.0138 0.0085720000219511 0.26014242576773 0.020919999936173
110 114 2 0.83333333333333 0.0138 0.0085720000219511 0.26014242576773 0.020919999936173
110 115 2 0.83333333333333 0.0138 -0.023246999994512 0.30005468824211 0.069194303392389
111 113 2 0.83333333333333 0.0138 0.0085720000219511 0.26014242576773 0.020919999936173
111 114 2 0.83333333333333 0.0138 0.0085720000219511 0.26014242576773 0.020919999936173
111 115 2 0.83333333333333 0.0138 -0.023246999994512 0.30005468824211 0.069194303392389
112 119 2 0.83333333333333 -0.024849000016463 0.013659000016463 0.30005468824211 0.069194303392389
112 120 2 0.83333333333333 -0.024849000016463 0.013659000016463 0.30005468824211 0.069194303392389
112 121 2 0.83333333333333 -0.024849000016463 0.0086839999890244 0.33996695084507 0.076288266607901
113 116 2 0.83333333333333 0.0085720000219511 0.010403000005488 0.26014242576773 0.020919999936173
113 117 2 0.83333333333333 0.0085720000219511 0.010403000005488 0.26014242576773 0.020919999936173
113 118 2 0.83333333333333 0.0085720000219511 -0.012487999978049 0.30005468824211 0.069194303392389
114 116 2 0.83333333333333 0.0085720000219511 0.010403000005488 0.26014242576773 0.020919999936173
114 117 2 0.83333333333333 0.0085720000219511 0.010403000005488 0.26014242576773 0.020919999936173
114 118 2 0.83333333333333 0.0085720000219511 -0.012487999978049 0.30005468824211 0.069194303392389
115 122 2 0.83333333333333 -0.023246999994512 0.010026000010976 0.30005468824211 0.069194303392389
115 123 2 0.83333333333333 -0.023246999994512 0.010026000010976 0.30005468824211 0.069194303392389
115 124 2 0.83333333333333 -0.023246999994512 -0.11729000016463 0.33996695084507 0.076288266607901
116 119 2 0.83333333333333 0.010403000005488 0.013659000016463 0.26014242576773 0.020919999936173
116 120 2 0.83333333333333 0.010403000005488 0.013659000016463 0.26014242576773 0.020919999936173
116 121 2 0.83333333333333 0.010403000005488 0.0086839999890244 0.30005468824211 0.069194303392389
117 119 2 0.83333333333333 0.010403000005488 0.013659000016463 0.26014242576773 0.020919999936173
117 120 2 0.83333333333333 0.010403000005488 0.013659000016463 0.26014242576773 0.020919999936173
117 121 2 0.83333333333333 0.010403000005488 0.0086839999890244 0.30005468824211 0.069194303392389
118 125 2 0.83333333333333 -0.012487999978049 0.026626999994512 0.30005468824211 0.069194303392389
118 126 2 0.83333333333333 -0.012487999978049 0.026626999994512 0.30005468824211 0.069194303392389
118 127 2 0.83333333333333 -0.012487999978049 0.026626999994512 0.30005468824211 0.069194303392389
119 122 2 0.83333333333333 0.013659000016463 0.010026000010976 0.26014242576773 0.020919999936173
119 123 2 0.83333333333333 0.013659000016463 0.010026000010976 0.26014242576773 0.020919999936173
119 124 2 0.83333333333333 0.013659000016463 -0.11729000016463 0.30005468824211 0.069194303392389
120 122 2 0.83333333333333 0.013659000016463 0.010026000010976 0.26014242576773 0.020919999936173
120 123 2 0.83333333333333 0.013659000016463 0.010026000010976 0.26014242576773 0.020919999936173
120 124 2 0.83333333333333 0.013659000016463 -0.11729000016463 0.30005468824211 0.069194303392389
122 125 2 0.83333333333333 0.010026000010976 0.026626999994512 0.26014242576773 0.020919999936173
122 126 2 0.83333333333333 0.010026000010976 0.026626999994512 0.26014242576773 0.020919999936173
122 127 2 0.83333333333333 0.010026000010976 0.026626999994512 0.26014242576773 0.020919999936173
123 125 2 0.83333333333333 0.010026000010976 0.026626999994512 0.26014242576773 0.020919999936173
123 126 2 0.83333333333333 0.010026000010976 0.026626999994512 0.26014242576773 0.020919999936173
123 127 2 0.83333333333333 0.010026000010976 0.026626999994512 0.26014242576773 0.020919999936173

[ angles ]
;    ai     aj     ak funct         c0         c1         c2         c3
     44     47     48     1   123.1100526 569.275040
     44     47     49     1   111.9600481 579.567680
     41     44     47     1   110.5300474 533.794720
     38     41     44     1   112.0500483 394.969600
     35     38     41     1   112.0500483 394.969600
     32     35     38     1   112.0500483 394.969600
     29     32     35     1   112.0500483 394.969600
     26     29     32     1   112.0500483 394.969600
     23     26     29     1   112.0500483 394.969600
     20     23     26     1   112.0500483 394.969600
     17     20     23     1   112.0500483 394.969600
     14     17     20     1   112.0500483 394.969600
     11     14     17     1   112.0500483 394.969600
      8     11     14     1   112.0500483 394.969600
      5      8     11     1   112.0500483 394.969600
      1      5      8     1   112.0500483 394.969600
     76     70     77     1   130.3800556 654.126560
     75     74     78     1   123.1100526 569.275040
     74     78     81     1   110.5300474 533.794720
     73     74     75     1   123.3300529 635.382240
     73     74     78     1   111.9600481 579.567680
     71     59     72     1   119.9000514 1171.520000
     66     64     70     1   114.2100488 544.505760
     64     70     76     1   123.1100526 569.275040
     64     70     77     1   123.1100526 569.275040
     61     64     66     1   114.3200492 539.317600
     61     64     70     1   110.5300474 533.794720
     60     59     71     1   108.2300464 836.800000
     60     59     72     1   108.2300464 836.800000
     60     61     64     1   108.4200467 567.183040
     59     60     61     1   120.5000516 836.800000
     58     59     60     1   102.6000440 753.120000
     58     59     71     1   108.2300464 836.800000
     58     59     72     1   108.2300464 836.800000
     55     53     73     1   108.4200467 567.183040
     55     58     59     1   120.5000516 836.800000
     53     55     58     1   108.4200467 567.183040
     53     73     74     1   115.1400492 532.455840
     50     53     55     1   110.6300475 528.941280
     50     53     73     1   108.4200467 567.183040
     49     50     53     1   108.4200467 567.183040
     48     47     49     1   123.3300529 635.382240
     47     49     50     1   115.1400492 532.455840
    118    121    124     1   112.0500483 394.969600
    115    118    121     1   112.0500483 394.969600
    112    115    118     1   112.0500483 394.969600
    109    112    115     1   112.0500483 394.969600
    106    109    112     1   112.0500483 394.969600
    103    106    109     1   112.0500483 394.969600
    101    103    106     1   111.4400476 531.619040
     99    101    103     1   123.4200531 538.313440
     96     99    101     1   123.4200531 538.313440
     93     96     99     1   111.4400476 531.619040
     90     93     96     1   112.0500483 394.969600
     87     90     93     1   112.0500483 394.969600
     84     87     90     1   112.0500483 394.969600
     81     84     87     1   112.0500483 394.969600
     78     81     84     1   112.0500483 394.969600
     46     44     47     1   109.6800468 394.969600
     45     44     46     1   108.3500467 329.950240
     45     44     47     1   109.6800468 394.969600
     43     41     44     1   110.0500475 388.024160
     42     41     43     1   108.3500467 329.950240
     42     41     44     1   110.0500475 388.024160
     41     44     45     1   110.0500475 388.024160
     41     44     46     1   110.0500475 388.024160
     40     38     41     1   110.0500475 388.024160
     39     38     40     1   108.3500467 329.950240
     39     38     41     1   110.0500475 388.024160
     38     41     42     1   110.0500475 388.024160
     38     41     43     1   110.0500475 388.024160
     37     35     38     1   110.0500475 388.024160
     36     35     37     1   108.3500467 329.950240
     36     35     38     1   110.0500475 388.024160
     35     38     39     1   110.0500475 388.024160
     35     38     40     1   110.0500475 388.024160
     34     32     35     1   110.0500475 388.024160
     33     32     34     1   108.3500467 329.950240
     33     32     35     1   110.0500475 388.024160
     32     35     36     1   110.0500475 388.024160
     32     35     37     1   110.0500475 388.024160
     31     29     32     1   110.0500475 388.024160
     30     29     31     1   108.3500467 329.950240
     30     29     32     1   110.0500475 388.024160
     29     32     33     1   110.0500475 388.024160
     29     32     34     1   110.0500475 388.024160
     28     26     29     1   110.0500475 388.024160
     27     26     28     1   108.3500467 329.950240
     27     26     29     1   110.0500475 388.024160
     26     29     30     1   110.0500475 388.024160
     26     29     31     1   110.0500475 388.024160
     25     23     26     1   110.0500475 388.024160
     24     23     25     1   108.3500467 329.950240
     24     23     26     1   110.0500475 388.024160
     23     26     27     1   110.0500475 388.024160
     23     26     28     1   110.0500475 388.024160
     22     20     23     1   110.0500475 388.024160
     21     20     22     1   108.3500467 329.950240
     21     20     23     1   110.0500475 388.024160
     20     23     24     1   110.0500475 388.024160
     20     23     25     1   110.0500475 388.024160
     19     17     20     1   110.0500475 388.024160
     18     17     19     1   108.3500467 329.950240
     18     17     20     1   110.0500475 388.024160
     17     20     21     1   110.0500475 388.024160
     17     20     22     1   110.0500475 388.024160
     16     14     17     1   110.0500475 388.024160
     15     14     16     1   108.3500467 329.950240
     15     14     17     1   110.0500475 388.024160
     14     17     18     1   110.0500475 388.024160
     14     17     19     1   110.0500475 388.024160
     13     11     14     1   110.0500475 388.024160
     12     11     13     1   108.3500467 329.950240
     12     11     14     1   110.0500475 388.024160
     11     14     15     1   110.0500475 388.024160
     11     14     16     1   110.0500475 388.024160
     10      8     11     1   110.0500475 388.024160
      9      8     10     1   108.3500467 329.950240
      9      8     11     1   110.0500475 388.024160
      8     11     12     1   110.0500475 388.024160
      8     11     13     1   110.0500475 388.024160
      7      5      8     1   110.0500475 388.024160
      6      5      7     1   108.3500467 329.950240
      6      5      8     1   110.0500475 388.024160
      5      8      9     1   110.0500475 388.024160
      5      8     10     1   110.0500475 388.024160
      4      1      5     1   110.0500475 388.024160
      3      1      4     1   108.3500467 329.950240
      3      1      5     1   110.0500475 388.024160
      2      1      3     1   108.3500467 329.950240
      2      1      4     1   108.3500467 329.950240
      2      1      5     1   110.0500475 388.024160
      1      5      6     1   110.0500475 388.024160
      1      5      7     1   110.0500475 388.024160
     74     78     79     1   109.6800468 394.969600
     74     78     80     1   109.6800468 394.969600
     68     66     69     1   108.1100462 339.071360
     67     66     68     1   108.1100462 339.071360
     67     66     69     1   108.1100462 339.071360
     65     64     66     1   107.9100461 410.199360
     65     64     70     1   109.5400468 395.220640
     64     66     67     1   110.1100470 386.517920
     64     66     68     1   110.1100470 386.517920
     64     66     69     1   110.1100470 386.517920
     63     61     64     1   110.0700471 387.940480
     62     61     63     1   109.5500472 327.858240
     62     61     64     1   110.0700471 387.940480
     61     64     65     1   111.7400478 385.095360
     60     61     62     1   108.8200469 425.429120
     60     61     63     1   108.8200469 425.429120
     57     55     58     1   108.8200469 425.429120
     56     55     57     1   109.5500472 327.858240
     56     55     58     1   108.8200469 425.429120
     54     53     55     1   110.0700471 387.940480
     54     53     73     1   108.8200469 425.429120
     53     55     56     1   110.0700471 387.940480
     53     55     57     1   110.0700471 387.940480
     52     50     53     1   110.0700471 387.940480
     51     50     52     1   109.5500472 327.858240
     51     50     53     1   110.0700471 387.940480
     50     53     54     1   110.0700471 387.940480
     49     50     51     1   108.8200469 425.429120
     49     50     52     1   108.8200469 425.429120
    126    124    127     1   108.3500467 329.950240
    125    124    126     1   108.3500467 329.950240
    125    124    127     1   108.3500467 329.950240
    123    121    124     1   110.0500475 388.024160
    122    121    123     1   108.3500467 329.950240
    122    121    124     1   110.0500475 388.024160
    121    124    125     1   110.0500475 388.024160
    121    124    126     1   110.0500475 388.024160
    121    124    127     1   110.0500475 388.024160
    120    118    121     1   110.0500475 388.024160
    119    118    120     1   108.3500467 329.950240
    119    118    121     1   110.0500475 388.024160
    118    121    122     1   110.0500475 388.024160
    118    121    123     1   110.0500475 388.024160
    117    115    118     1   110.0500475 388.024160
    116    115    117     1   108.3500467 329.950240
    116    115    118     1   110.0500475 388.024160
    115    118    119     1   110.0500475 388.024160
    115    118    120     1   110.0500475 388.024160
    114    112    115     1   110.0500475 388.024160
    113    112    114     1   108.3500467 329.950240
    113    112    115     1   110.0500475 388.024160
    112    115    116     1   110.0500475 388.024160
    112    115    117     1   110.0500475 388.024160
    111    109    112     1   110.0500475 388.024160
    110    109    111     1   108.3500467 329.950240
    110    109    112     1   110.0500475 388.024160
    109    112    113     1   110.0500475 388.024160
    109    112    114     1   110.0500475 388.024160
    108    106    109     1   110.0500475 388.024160
    107    106    108     1   108.3500467 329.950240
    107    106    109     1   110.0500475 388.024160
    106    109    110     1   110.0500475 388.024160
    106    109    111     1   110.0500475 388.024160
    105    103    106     1   110.0500475 388.024160
    104    103    105     1   108.3500467 329.950240
    104    103    106     1   110.0500475 388.024160
    103    106    107     1   110.0500475 388.024160
    103    106    108     1   110.0500475 388.024160
    102    101    103     1   117.3000503 382.082880
    101    103    104     1   110.4900475 393.547040
    101    103    105     1   110.4900475 393.547040
    100     99    101     1   120.9400517 418.734720
     99    101    102     1   120.9400517 418.734720
     98     96     99     1   110.4900475 393.547040
     97     96     98     1   108.3500467 329.950240
     97     96     99     1   110.4900475 393.547040
     96     99    100     1   117.3000503 382.082880
     95     93     96     1   110.0500475 388.024160
     94     93     95     1   108.3500467 329.950240
     94     93     96     1   110.0500475 388.024160
     93     96     97     1   110.0500475 388.024160
     93     96     98     1   110.0500475 388.024160
     92     90     93     1   110.0500475 388.024160
     91     90     92     1   108.3500467 329.950240
     91     90     93     1   110.0500475 388.024160
     90     93     94     1   110.0500475 388.024160
     90     93     95     1   110.0500475 388.024160
     89     87     90     1   110.0500475 388.024160
     88     87     89     1   108.3500467 329.950240
     88     87     90     1   110.0500475 388.024160
     87     90     91     1   110.0500475 388.024160
     87     90     92     1   110.0500475 388.024160
     86     84     87     1   110.0500475 388.024160
     85     84     86     1   108.3500467 329.950240
     85     84     87     1   110.0500475 388.024160
     84     87     88     1   110.0500475 388.024160
     84     87     89     1   110.0500475 388.024160
     83     81     84     1   110.0500475 388.024160
     82     81     83     1   108.3500467 329.950240
     82     81     84     1   110.0500475 388.024160
     81     84     85     1   110.0500475 388.024160
     81     84     86     1   110.0500475 388.024160
     80     78     81     1   110.0500475 388.024160
     79     78     80     1   108.3500467 329.950240
     79     78     81     1   110.0500475 388.024160
     78     81     82     1   110.0500475 388.024160
     78     81     83     1   110.0500475 388.024160


[ dihedrals ]
;    ai     aj     ak     al funct         c0         c1         c2         c3         c4         c5
     44     47     49     50     1  180.0000771  11.2968000  2
     41     44     47     48     1  180.0000771  0.0000000  2
     41     44     47     49     1  180.0000771  0.0000000  2
     38     41     44     47     1  0.0000000  0.6527040  3
     35     38     41     44     1  0.0000000  0.4184000  1
     35     38     41     44     1  0.0000000  0.4184000  2
     35     38     41     44     1  0.0000000  1.2552000  3
     35     38     41     44     1  0.0000000  0.4184000  4
     35     38     41     44     1  0.0000000  0.4184000  5
     32     35     38     41     1  0.0000000  0.4184000  1
     32     35     38     41     1  0.0000000  0.4184000  2
     32     35     38     41     1  0.0000000  1.2552000  3
     32     35     38     41     1  0.0000000  0.4184000  4
     32     35     38     41     1  0.0000000  0.4184000  5
     29     32     35     38     1  0.0000000  0.4184000  1
     29     32     35     38     1  0.0000000  0.4184000  2
     29     32     35     38     1  0.0000000  1.2552000  3
     29     32     35     38     1  0.0000000  0.4184000  4
     29     32     35     38     1  0.0000000  0.4184000  5
     26     29     32     35     1  0.0000000  0.4184000  1
     26     29     32     35     1  0.0000000  0.4184000  2
     26     29     32     35     1  0.0000000  1.2552000  3
     26     29     32     35     1  0.0000000  0.4184000  4
     26     29     32     35     1  0.0000000  0.4184000  5
     23     26     29     32     1  0.0000000  0.4184000  1
     23     26     29     32     1  0.0000000  0.4184000  2
     23     26     29     32     1  0.0000000  1.2552000  3
     23     26     29     32     1  0.0000000  0.4184000  4
     23     26     29     32     1  0.0000000  0.4184000  5
     20     23     26     29     1  0.0000000  0.4184000  1
     20     23     26     29     1  0.0000000  0.4184000  2
     20     23     26     29     1  0.0000000  1.2552000  3
     20     23     26     29     1  0.0000000  0.4184000  4
     20     23     26     29     1  0.0000000  0.4184000  5
     17     20     23     26     1  0.0000000  0.4184000  1
     17     20     23     26     1  0.0000000  0.4184000  2
     17     20     23     26     1  0.0000000  1.2552000  3
     17     20     23     26     1  0.0000000  0.4184000  4
     17     20     23     26     1  0.0000000  0.4184000  5
     14     17     20     23     1  0.0000000  0.4184000  1
     14     17     20     23     1  0.0000000  0.4184000  2
     14     17     20     23     1  0.0000000  1.2552000  3
     14     17     20     23     1  0.0000000  0.4184000  4
     14     17     20     23     1  0.0000000  0.4184000  5
     11     14     17     20     1  0.0000000  0.4184000  1
     11     14     17     20     1  0.0000000  0.4184000  2
     11     14     17     20     1  0.0000000  1.2552000  3
     11     14     17     20     1  0.0000000  0.4184000  4
     11     14     17     20     1  0.0000000  0.4184000  5
      8     11     14     17     1  0.0000000  0.4184000  1
      8     11     14     17     1  0.0000000  0.4184000  2
      8     11     14     17     1  0.0000000  1.2552000  3
      8     11     14     17     1  0.0000000  0.4184000  4
      8     11     14     17     1  0.0000000  0.4184000  5
      5      8     11     14     1  0.0000000  0.4184000  1
      5      8     11     14     1  0.0000000  0.4184000  2
      5      8     11     14     1  0.0000000  1.2552000  3
      5      8     11     14     1  0.0000000  0.4184000  4
      5      8     11     14     1  0.0000000  0.4184000  5
      1      5      8     11     1  0.0000000  0.4184000  1
      1      5      8     11     1  0.0000000  0.4184000  2
      1      5      8     11     1  0.0000000  1.2552000  3
      1      5      8     11     1  0.0000000  0.4184000  4
      1      5      8     11     1  0.0000000  0.4184000  5
     75     74     78     81     1  180.0000771  0.0000000  2
     74     78     81     84     1  0.0000000  0.6527040  3
     73     74     78     81     1  180.0000771  0.0000000  2
     66     64     70     76     1  180.0000771  0.0000000  2
     66     64     70     77     1  180.0000771  0.0000000  2
     61     60     59     71     1  0.0000000  0.0000000  1
     61     60     59     71     1  0.0000000  0.8368000  2
     61     60     59     71     1  0.0000000  0.0000000  3
     61     60     59     71     1  0.0000000  0.0000000  4
     61     60     59     71     1  0.0000000  0.0000000  5
     61     60     59     72     1  0.0000000  0.0000000  1
     61     60     59     72     1  0.0000000  0.8368000  2
     61     60     59     72     1  0.0000000  0.0000000  3
     61     60     59     72     1  0.0000000  0.0000000  4
     61     60     59     72     1  0.0000000  0.0000000  5
     61     64     70     76     1  180.0000771  0.0000000  2
     61     64     70     77     1  180.0000771  0.0000000  2
     60     61     64     66     1  0.0000000  4.1840000  3
     60     61     64     70     1  0.0000000  0.6510304  3
     59     60     61     64     1  180.0000771  -3.3472000  2
     59     60     61     64     1  0.0000000  0.0000000  3
     58     55     53     73     1  0.0000000  0.0000000  1
     58     55     53     73     1  0.0000000  0.0000000  2
     58     55     53     73     1  0.0000000  0.0000000  3
     58     55     53     73     1  0.0000000  0.0000000  4
     58     55     53     73     1  0.0000000  0.0000000  5
     58     59     60     61     1  0.0000000  9.6232000  2
     58     59     60     61     1  0.0000000  2.5104000  3
     55     53     73     74     1  0.0000000  -0.4184000  1
     55     53     73     74     1  240.0001029  -1.2552000  2
     55     53     73     74     1  300.0001286  -0.8368000  3
     55     58     59     60     1  0.0000000  9.6232000  2
     55     58     59     60     1  0.0000000  2.5104000  3
     55     58     59     71     1  0.0000000  0.0000000  1
     55     58     59     71     1  0.0000000  0.8368000  2
     55     58     59     71     1  0.0000000  0.0000000  3
     55     58     59     71     1  0.0000000  0.0000000  4
     55     58     59     71     1  0.0000000  0.0000000  5
     55     58     59     72     1  0.0000000  0.0000000  1
     55     58     59     72     1  0.0000000  0.8368000  2
     55     58     59     72     1  0.0000000  0.0000000  3
     55     58     59     72     1  0.0000000  0.0000000  4
     55     58     59     72     1  0.0000000  0.0000000  5
     53     55     58     59     1  180.0000771  -3.3472000  2
     53     55     58     59     1  0.0000000  0.0000000  3
     53     73     74     75     1  180.0000771  5.8576000  1
     53     73     74     75     1  180.0000771  11.2968000  2
     53     73     74     78     1  180.0000771  11.2968000  2
     50     53     55     58     1  180.0000771  3.3472000  1
     50     53     55     58     1  120.0000514  0.8368000  2
     50     53     55     58     1  60.0000257  1.6736000  3
     50     53     73     74     1  0.0000000  -0.4184000  1
     50     53     73     74     1  240.0001029  -1.2552000  2
     50     53     73     74     1  300.0001286  -0.8368000  3
     49     50     53     55     1  0.0000000  0.0000000  1
     49     50     53     55     1  0.0000000  0.0000000  2
     49     50     53     55     1  0.0000000  0.0000000  3
     49     50     53     55     1  0.0000000  0.0000000  4
     49     50     53     55     1  0.0000000  0.0000000  5
     49     50     53     73     1  180.0000771  -0.4184000  1
     49     50     53     73     1  0.0000000  1.2552000  2
     49     50     53     73     1  0.0000000  4.1840000  3
     48     47     49     50     1  180.0000771  5.8576000  1
     48     47     49     50     1  180.0000771  11.2968000  2
     47     49     50     53     1  0.0000000  -0.4184000  1
     47     49     50     53     1  240.0001029  -1.2552000  2
     47     49     50     53     1  300.0001286  -0.8368000  3
    115    118    121    124     1  0.0000000  0.4184000  1
    115    118    121    124     1  0.0000000  0.4184000  2
    115    118    121    124     1  0.0000000  1.2552000  3
    115    118    121    124     1  0.0000000  0.4184000  4
    115    118    121    124     1  0.0000000  0.4184000  5
    112    115    118    121     1  0.0000000  0.4184000  1
    112    115    118    121     1  0.0000000  0.4184000  2
    112    115    118    121     1  0.0000000  1.2552000  3
    112    115    118    121     1  0.0000000  0.4184000  4
    112    115    118    121     1  0.0000000  0.4184000  5
    109    112    115    118     1  0.0000000  0.4184000  1
    109    112    115    118     1  0.0000000  0.4184000  2
    109    112    115    118     1  0.0000000  1.2552000  3
    109    112    115    118     1  0.0000000  0.4184000  4
    109    112    115    118     1  0.0000000  0.4184000  5
    106    109    112    115     1  0.0000000  0.4184000  1
    106    109    112    115     1  0.0000000  0.4184000  2
    106    109    112    115     1  0.0000000  1.2552000  3
    106    109    112    115     1  0.0000000  0.4184000  4
    106    109    112    115     1  0.0000000  0.4184000  5
    103    106    109    112     1  0.0000000  0.4184000  1
    103    106    109    112     1  0.0000000  0.4184000  2
    103    106    109    112     1  0.0000000  1.2552000  3
    103    106    109    112     1  0.0000000  0.4184000  4
    103    106    109    112     1  0.0000000  0.4184000  5
    101    103    106    109     1  0.0000000  0.0000000  1
    101    103    106    109     1  0.0000000  0.0000000  2
    101    103    106    109     1  0.0000000  2.0920000  3
    101    103    106    109     1  0.0000000  0.0000000  4
    101    103    106    109     1  0.0000000  0.4184000  5
     99    101    103    106     1  0.0000000  2.5104000  1
     99    101    103    106     1  180.0000771  1.6736000  2
     99    101    103    106     1  180.0000771  1.6736000  3
     99    101    103    106     1  180.0000771  0.8368000  4
     99    101    103    106     1  180.0000771  0.8368000  5
     96     99    101    103     1  180.0000771  7.1128000  1
     96     99    101    103     1  180.0000771  13.8072000  2
     96     99    101    103     1  0.0000000  2.5104000  3
     96     99    101    103     1  0.0000000  0.0000000  4
     96     99    101    103     1  0.0000000  0.0000000  5
     93     96     99    101     1  0.0000000  2.5104000  1
     93     96     99    101     1  180.0000771  1.6736000  2
     93     96     99    101     1  180.0000771  1.6736000  3
     93     96     99    101     1  180.0000771  0.8368000  4
     93     96     99    101     1  180.0000771  0.8368000  5
     90     93     96     99     1  0.0000000  0.0000000  1
     90     93     96     99     1  0.0000000  0.0000000  2
     90     93     96     99     1  0.0000000  2.0920000  3
     90     93     96     99     1  0.0000000  0.0000000  4
     90     93     96     99     1  0.0000000  0.4184000  5
     87     90     93     96     1  0.0000000  0.4184000  1
     87     90     93     96     1  0.0000000  0.4184000  2
     87     90     93     96     1  0.0000000  1.2552000  3
     87     90     93     96     1  0.0000000  0.4184000  4
     87     90     93     96     1  0.0000000  0.4184000  5
     84     87     90     93     1  0.0000000  0.4184000  1
     84     87     90     93     1  0.0000000  0.4184000  2
     84     87     90     93     1  0.0000000  1.2552000  3
     84     87     90     93     1  0.0000000  0.4184000  4
     84     87     90     93     1  0.0000000  0.4184000  5
     81     84     87     90     1  0.0000000  0.4184000  1
     81     84     87     90     1  0.0000000  0.4184000  2
     81     84     87     90     1  0.0000000  1.2552000  3
     81     84     87     90     1  0.0000000  0.4184000  4
     81     84     87     90     1  0.0000000  0.4184000  5
     78     81     84     87     1  0.0000000  0.4184000  1
     78     81     84     87     1  0.0000000  0.4184000  2
     78     81     84     87     1  0.0000000  1.2552000  3
     78     81     84     87     1  0.0000000  0.4184000  4
     78     81     84     87     1  0.0000000  0.4184000  5
     78     75     74     73     4  180.0000771  43.9320000  2
     64     76     70     77     4  180.0000771  4.6024000  2
     44     48     47     49     4  180.0000771  43.9320000  2
     46     44     47     48     1  0.0000000  3.3472000  1
     46     44     47     48     1  180.0000771  0.3347200  3
     46     44     47     49     1  180.0000771  0.0000000  2
     45     44     47     48     1  0.0000000  3.3472000  1
     45     44     47     48     1  180.0000771  0.3347200  3
     45     44     47     49     1  180.0000771  0.0000000  2
     43     41     44     45     1  0.0000000  0.6276000  3
     43     41     44     46     1  0.0000000  0.6276000  3
     43     41     44     47     1  0.0000000  0.6527040  3
     42     41     44     45     1  0.0000000  0.6276000  3
     42     41     44     46     1  0.0000000  0.6276000  3
     42     41     44     47     1  0.0000000  0.6527040  3
     40     38     41     42     1  0.0000000  0.6276000  3
     40     38     41     43     1  0.0000000  0.6276000  3
     40     38     41     44     1  0.0000000  0.6694400  3
     39     38     41     42     1  0.0000000  0.6276000  3
     39     38     41     43     1  0.0000000  0.6276000  3
     39     38     41     44     1  0.0000000  0.6694400  3
     38     41     44     45     1  0.0000000  0.6694400  3
     38     41     44     46     1  0.0000000  0.6694400  3
     37     35     38     39     1  0.0000000  0.6276000  3
     37     35     38     40     1  0.0000000  0.6276000  3
     37     35     38     41     1  0.0000000  0.6694400  3
     36     35     38     39     1  0.0000000  0.6276000  3
     36     35     38     40     1  0.0000000  0.6276000  3
     36     35     38     41     1  0.0000000  0.6694400  3
     35     38     41     42     1  0.0000000  0.6694400  3
     35     38     41     43     1  0.0000000  0.6694400  3
     34     32     35     36     1  0.0000000  0.6276000  3
     34     32     35     37     1  0.0000000  0.6276000  3
     34     32     35     38     1  0.0000000  0.6694400  3
     33     32     35     36     1  0.0000000  0.6276000  3
     33     32     35     37     1  0.0000000  0.6276000  3
     33     32     35     38     1  0.0000000  0.6694400  3
     32     35     38     39     1  0.0000000  0.6694400  3
     32     35     38     40     1  0.0000000  0.6694400  3
     31     29     32     33     1  0.0000000  0.6276000  3
     31     29     32     34     1  0.0000000  0.6276000  3
     31     29     32     35     1  0.0000000  0.6694400  3
     30     29     32     33     1  0.0000000  0.6276000  3
     30     29     32     34     1  0.0000000  0.6276000  3
     30     29     32     35     1  0.0000000  0.6694400  3
     29     32     35     36     1  0.0000000  0.6694400  3
     29     32     35     37     1  0.0000000  0.6694400  3
     28     26     29     30     1  0.0000000  0.6276000  3
     28     26     29     31     1  0.0000000  0.6276000  3
     28     26     29     32     1  0.0000000  0.6694400  3
     27     26     29     30     1  0.0000000  0.6276000  3
     27     26     29     31     1  0.0000000  0.6276000  3
     27     26     29     32     1  0.0000000  0.6694400  3
     26     29     32     33     1  0.0000000  0.6694400  3
     26     29     32     34     1  0.0000000  0.6694400  3
     25     23     26     27     1  0.0000000  0.6276000  3
     25     23     26     28     1  0.0000000  0.6276000  3
     25     23     26     29     1  0.0000000  0.6694400  3
     24     23     26     27     1  0.0000000  0.6276000  3
     24     23     26     28     1  0.0000000  0.6276000  3
     24     23     26     29     1  0.0000000  0.6694400  3
     23     26     29     30     1  0.0000000  0.6694400  3
     23     26     29     31     1  0.0000000  0.6694400  3
     22     20     23     24     1  0.0000000  0.6276000  3
     22     20     23     25     1  0.0000000  0.6276000  3
     22     20     23     26     1  0.0000000  0.6694400  3
     21     20     23     24     1  0.0000000  0.6276000  3
     21     20     23     25     1  0.0000000  0.6276000  3
     21     20     23     26     1  0.0000000  0.6694400  3
     20     23     26     27     1  0.0000000  0.6694400  3
     20     23     26     28     1  0.0000000  0.6694400  3
     19     17     20     21     1  0.0000000  0.6276000  3
     19     17     20     22     1  0.0000000  0.6276000  3
     19     17     20     23     1  0.0000000  0.6694400  3
     18     17     20     21     1  0.0000000  0.6276000  3
     18     17     20     22     1  0.0000000  0.6276000  3
     18     17     20     23     1  0.0000000  0.6694400  3
     17     20     23     24     1  0.0000000  0.6694400  3
     17     20     23     25     1  0.0000000  0.6694400  3
     16     14     17     18     1  0.0000000  0.6276000  3
     16     14     17     19     1  0.0000000  0.6276000  3
     16     14     17     20     1  0.0000000  0.6694400  3
     15     14     17     18     1  0.0000000  0.6276000  3
     15     14     17     19     1  0.0000000  0.6276000  3
     15     14     17     20     1  0.0000000  0.6694400  3
     14     17     20     21     1  0.0000000  0.6694400  3
     14     17     20     22     1  0.0000000  0.6694400  3
     13     11     14     15     1  0.0000000  0.6276000  3
     13     11     14     16     1  0.0000000  0.6276000  3
     13     11     14     17     1  0.0000000  0.6694400  3
     12     11     14     15     1  0.0000000  0.6276000  3
     12     11     14     16     1  0.0000000  0.6276000  3
     12     11     14     17     1  0.0000000  0.6694400  3
     11     14     17     18     1  0.0000000  0.6694400  3
     11     14     17     19     1  0.0000000  0.6694400  3
     10      8     11     12     1  0.0000000  0.6276000  3
     10      8     11     13     1  0.0000000  0.6276000  3
     10      8     11     14     1  0.0000000  0.6694400  3
      9      8     11     12     1  0.0000000  0.6276000  3
      9      8     11     13     1  0.0000000  0.6276000  3
      9      8     11     14     1  0.0000000  0.6694400  3
      8     11     14     15     1  0.0000000  0.6694400  3
      8     11     14     16     1  0.0000000  0.6694400  3
      7      5      8      9     1  0.0000000  0.6276000  3
      7      5      8     10     1  0.0000000  0.6276000  3
      7      5      8     11     1  0.0000000  0.6694400  3
      6      5      8      9     1  0.0000000  0.6276000  3
      6      5      8     10     1  0.0000000  0.6276000  3
      6      5      8     11     1  0.0000000  0.6694400  3
      5      8     11     12     1  0.0000000  0.6694400  3
      5      8     11     13     1  0.0000000  0.6694400  3
      4      1      5      6     1  0.0000000  0.6276000  3
      4      1      5      7     1  0.0000000  0.6276000  3
      4      1      5      8     1  0.0000000  0.6694400  3
      3      1      5      6     1  0.0000000  0.6276000  3
      3      1      5      7     1  0.0000000  0.6276000  3
      3      1      5      8     1  0.0000000  0.6694400  3
      2      1      5      6     1  0.0000000  0.6276000  3
      2      1      5      7     1  0.0000000  0.6276000  3
      2      1      5      8     1  0.0000000  0.6694400  3
      1      5      8      9     1  0.0000000  0.6694400  3
      1      5      8     10     1  0.0000000  0.6694400  3
     75     74     78     79     1  0.0000000  3.3472000  1
     75     74     78     79     1  180.0000771  0.3347200  3
     75     74     78     80     1  0.0000000  3.3472000  1
     75     74     78     80     1  180.0000771  0.3347200  3
     74     78     81     82     1  0.0000000  0.6527040  3
     74     78     81     83     1  0.0000000  0.6527040  3
     73     74     78     79     1  180.0000771  0.0000000  2
     73     74     78     80     1  180.0000771  0.0000000  2
     69     66     64     70     1  0.0000000  0.6510304  3
     68     66     64     70     1  0.0000000  0.6510304  3
     67     66     64     70     1  0.0000000  0.6510304  3
     65     64     66     67     1  0.0000000  0.6510304  3
     65     64     66     68     1  0.0000000  0.6510304  3
     65     64     66     69     1  0.0000000  0.6510304  3
     65     64     70     76     1  180.0000771  0.0000000  2
     65     64     70     77     1  180.0000771  0.0000000  2
     63     61     64     65     1  0.0000000  0.6527040  3
     63     61     64     66     1  0.0000000  0.6527040  3
     63     61     64     70     1  0.0000000  0.6510304  3
     62     61     64     65     1  0.0000000  0.6527040  3
     62     61     64     66     1  0.0000000  0.6527040  3
     62     61     64     70     1  0.0000000  0.6510304  3
     61     64     66     67     1  0.0000000  0.6510304  3
     61     64     66     68     1  0.0000000  0.6510304  3
     61     64     66     69     1  0.0000000  0.6510304  3
     60     61     64     65     1  0.0000000  0.6527040  3
     59     60     61     62     1  0.0000000  0.0000000  1
     59     60     61     62     1  0.0000000  0.0000000  2
     59     60     61     62     1  0.0000000  1.6024720  3
     59     60     61     62     1  0.0000000  0.0000000  4
     59     60     61     62     1  0.0000000  0.0000000  5
     59     60     61     63     1  0.0000000  0.0000000  1
     59     60     61     63     1  0.0000000  0.0000000  2
     59     60     61     63     1  0.0000000  1.6024720  3
     59     60     61     63     1  0.0000000  0.0000000  4
     59     60     61     63     1  0.0000000  0.0000000  5
     57     55     53     73     1  0.0000000  1.0460000  1
     57     55     53     73     1  0.0000000  0.0000000  3
     57     55     58     59     1  0.0000000  0.0000000  1
     57     55     58     59     1  0.0000000  0.0000000  2
     57     55     58     59     1  0.0000000  1.6024720  3
     57     55     58     59     1  0.0000000  0.0000000  4
     57     55     58     59     1  0.0000000  0.0000000  5
     56     55     53     73     1  0.0000000  1.0460000  1
     56     55     53     73     1  0.0000000  0.0000000  3
     56     55     58     59     1  0.0000000  0.0000000  1
     56     55     58     59     1  0.0000000  0.0000000  2
     56     55     58     59     1  0.0000000  1.6024720  3
     56     55     58     59     1  0.0000000  0.0000000  4
     56     55     58     59     1  0.0000000  0.0000000  5
     54     53     55     56     1  0.0000000  0.6527040  3
     54     53     55     57     1  0.0000000  0.6527040  3
     54     53     55     58     1  0.0000000  1.0460000  1
     54     53     55     58     1  0.0000000  0.0000000  3
     54     53     73     74     1  0.0000000  1.6024720  3
     52     50     53     54     1  0.0000000  0.6527040  3
     52     50     53     55     1  0.0000000  0.6527040  3
     52     50     53     73     1  0.0000000  1.0460000  1
     52     50     53     73     1  0.0000000  0.0000000  3
     51     50     53     54     1  0.0000000  0.6527040  3
     51     50     53     55     1  0.0000000  0.6527040  3
     51     50     53     73     1  0.0000000  1.0460000  1
     51     50     53     73     1  0.0000000  0.0000000  3
     50     53     55     56     1  0.0000000  0.6527040  3
     50     53     55     57     1  0.0000000  0.6527040  3
     49     50     53     54     1  0.0000000  1.0460000  1
     49     50     53     54     1  0.0000000  0.0000000  3
     47     49     50     51     1  0.0000000  1.6024720  3
     47     49     50     52     1  0.0000000  1.6024720  3
    123    121    124    125     1  0.0000000  0.6276000  3
    123    121    124    126     1  0.0000000  0.6276000  3
    123    121    124    127     1  0.0000000  0.6276000  3
    122    121    124    125     1  0.0000000  0.6276000  3
    122    121    124    126     1  0.0000000  0.6276000  3
    122    121    124    127     1  0.0000000  0.6276000  3
    120    118    121    122     1  0.0000000  0.6276000  3
    120    118    121    123     1  0.0000000  0.6276000  3
    120    118    121    124     1  0.0000000  0.6694400  3
    119    118    121    122     1  0.0000000  0.6276000  3
    119    118    121    123     1  0.0000000  0.6276000  3
    119    118    121    124     1  0.0000000  0.6694400  3
    118    121    124    125     1  0.0000000  0.6694400  3
    118    121    124    126     1  0.0000000  0.6694400  3
    118    121    124    127     1  0.0000000  0.6694400  3
    117    115    118    119     1  0.0000000  0.6276000  3
    117    115    118    120     1  0.0000000  0.6276000  3
    117    115    118    121     1  0.0000000  0.6694400  3
    116    115    118    119     1  0.0000000  0.6276000  3
    116    115    118    120     1  0.0000000  0.6276000  3
    116    115    118    121     1  0.0000000  0.6694400  3
    115    118    121    122     1  0.0000000  0.6694400  3
    115    118    121    123     1  0.0000000  0.6694400  3
    114    112    115    116     1  0.0000000  0.6276000  3
    114    112    115    117     1  0.0000000  0.6276000  3
    114    112    115    118     1  0.0000000  0.6694400  3
    113    112    115    116     1  0.0000000  0.6276000  3
    113    112    115    117     1  0.0000000  0.6276000  3
    113    112    115    118     1  0.0000000  0.6694400  3
    112    115    118    119     1  0.0000000  0.6694400  3
    112    115    118    120     1  0.0000000  0.6694400  3
    111    109    112    113     1  0.0000000  0.6276000  3
    111    109    112    114     1  0.0000000  0.6276000  3
    111    109    112    115     1  0.0000000  0.6694400  3
    110    109    112    113     1  0.0000000  0.6276000  3
    110    109    112    114     1  0.0000000  0.6276000  3
    110    109    112    115     1  0.0000000  0.6694400  3
    109    112    115    116     1  0.0000000  0.6694400  3
    109    112    115    117     1  0.0000000  0.6694400  3
    108    106    109    110     1  0.0000000  0.6276000  3
    108    106    109    111     1  0.0000000  0.6276000  3
    108    106    109    112     1  0.0000000  0.6694400  3
    107    106    109    110     1  0.0000000  0.6276000  3
    107    106    109    111     1  0.0000000  0.6276000  3
    107    106    109    112     1  0.0000000  0.6694400  3
    106    109    112    113     1  0.0000000  0.6694400  3
    106    109    112    114     1  0.0000000  0.6694400  3
    105    103    106    107     1  0.0000000  0.6276000  3
    105    103    106    108     1  0.0000000  0.6276000  3
    105    103    106    109     1  0.0000000  0.6694400  3
    104    103    106    107     1  0.0000000  0.6276000  3
    104    103    106    108     1  0.0000000  0.6276000  3
    104    103    106    109     1  0.0000000  0.6694400  3
    103    106    109    110     1  0.0000000  0.6694400  3
    103    106    109    111     1  0.0000000  0.6694400  3
    102    101    103    104     1  0.0000000  0.0000000  2
    102    101    103    105     1  0.0000000  0.0000000  2
    102    101    103    106     1  0.0000000  0.0000000  2
    101    103    106    107     1  0.0000000  0.6510304  3
    101    103    106    108     1  0.0000000  0.6510304  3
    100     99    101    102     1  180.0000771  27.8236000  2
    100     99    101    103     1  180.0000771  27.8236000  2
     99    101    103    104     1  0.0000000  4.8116000  1
     99    101    103    104     1  180.0000771  1.5899200  3
     99    101    103    105     1  0.0000000  4.8116000  1
     99    101    103    105     1  180.0000771  1.5899200  3
     98     96     99    100     1  0.0000000  0.0000000  2
     98     96     99    101     1  0.0000000  4.8116000  1
     98     96     99    101     1  180.0000771  1.5899200  3
     97     96     99    100     1  0.0000000  0.0000000  2
     97     96     99    101     1  0.0000000  4.8116000  1
     97     96     99    101     1  180.0000771  1.5899200  3
     96     99    101    102     1  180.0000771  27.8236000  2
     95     93     96     97     1  0.0000000  0.6276000  3
     95     93     96     98     1  0.0000000  0.6276000  3
     95     93     96     99     1  0.0000000  0.6510304  3
     94     93     96     97     1  0.0000000  0.6276000  3
     94     93     96     98     1  0.0000000  0.6276000  3
     94     93     96     99     1  0.0000000  0.6510304  3
     93     96     99    100     1  0.0000000  0.0000000  2
     92     90     93     94     1  0.0000000  0.6276000  3
     92     90     93     95     1  0.0000000  0.6276000  3
     92     90     93     96     1  0.0000000  0.6694400  3
     91     90     93     94     1  0.0000000  0.6276000  3
     91     90     93     95     1  0.0000000  0.6276000  3
     91     90     93     96     1  0.0000000  0.6694400  3
     90     93     96     97     1  0.0000000  0.6694400  3
     90     93     96     98     1  0.0000000  0.6694400  3
     89     87     90     91     1  0.0000000  0.6276000  3
     89     87     90     92     1  0.0000000  0.6276000  3
     89     87     90     93     1  0.0000000  0.6694400  3
     88     87     90     91     1  0.0000000  0.6276000  3
     88     87     90     92     1  0.0000000  0.6276000  3
     88     87     90     93     1  0.0000000  0.6694400  3
     87     90     93     94     1  0.0000000  0.6694400  3
     87     90     93     95     1  0.0000000  0.6694400  3
     86     84     87     88     1  0.0000000  0.6276000  3
     86     84     87     89     1  0.0000000  0.6276000  3
     86     84     87     90     1  0.0000000  0.6694400  3
     85     84     87     88     1  0.0000000  0.6276000  3
     85     84     87     89     1  0.0000000  0.6276000  3
     85     84     87     90     1  0.0000000  0.6694400  3
     84     87     90     91     1  0.0000000  0.6694400  3
     84     87     90     92     1  0.0000000  0.6694400  3
     83     81     84     85     1  0.0000000  0.6276000  3
     83     81     84     86     1  0.0000000  0.6276000  3
     83     81     84     87     1  0.0000000  0.6694400  3
     82     81     84     85     1  0.0000000  0.6276000  3
     82     81     84     86     1  0.0000000  0.6276000  3
     82     81     84     87     1  0.0000000  0.6694400  3
     81     84     87     88     1  0.0000000  0.6694400  3
     81     84     87     89     1  0.0000000  0.6694400  3
     80     78     81     82     1  0.0000000  0.6276000  3
     80     78     81     83     1  0.0000000  0.6276000  3
     80     78     81     84     1  0.0000000  0.6694400  3
     79     78     81     82     1  0.0000000  0.6276000  3
     79     78     81     83     1  0.0000000  0.6276000  3
     79     78     81     84     1  0.0000000  0.6694400  3
     78     81     84     85     1  0.0000000  0.6694400  3
     78     81     84     86     1  0.0000000  0.6694400  3
     99    103    101    102     4  180.0000771  4.6024000  2
    101     96     99    100     4  180.0000771  4.6024000  2
