; Exact Amber Lipid21 v1.0 topology converted by ParmEd
; Explicit [pairs] preserve Lipid21-specific 1-4 scaling.

[ moleculetype ]
; Name nrexcl
PSM 3

[ atoms ]
; nr type resnr residue atom cgnr charge mass
1 L21_cD 1 PSM C16F 1 -0.12544700 12.010000
2 L21_hL 1 PSM H16F 2 0.02904700 1.008000
3 L21_hL 1 PSM H16G 3 0.02904700 1.008000
4 L21_hL 1 PSM H16H 4 0.02904700 1.008000
5 L21_cD 1 PSM C15F 5 0.01397500 12.010000
6 L21_hL 1 PSM H15F 6 0.00929200 1.008000
7 L21_hL 1 PSM H15G 7 0.00929200 1.008000
8 L21_cD 1 PSM C14F 8 -0.02008600 12.010000
9 L21_hL 1 PSM H14F 9 0.01592900 1.008000
10 L21_hL 1 PSM H14G 10 0.01592900 1.008000
11 L21_cD 1 PSM C13F 11 -0.03309600 12.010000
12 L21_hL 1 PSM H13F 12 0.01462100 1.008000
13 L21_hL 1 PSM H13G 13 0.01462100 1.008000
14 L21_cD 1 PSM C12F 14 -0.02763300 12.010000
15 L21_hL 1 PSM H12F 15 0.01136800 1.008000
16 L21_hL 1 PSM H12G 16 0.01136800 1.008000
17 L21_cD 1 PSM C11F 17 -0.02520600 12.010000
18 L21_hL 1 PSM H11F 18 0.01433400 1.008000
19 L21_hL 1 PSM H11G 19 0.01433400 1.008000
20 L21_cD 1 PSM C10F 20 -0.02883100 12.010000
21 L21_hL 1 PSM H10F 21 0.01469100 1.008000
22 L21_hL 1 PSM H10G 22 0.01469100 1.008000
23 L21_cD 1 PSM C9F 23 -0.03047200 12.010000
24 L21_hL 1 PSM H9F 24 0.01389700 1.008000
25 L21_hL 1 PSM H9G 25 0.01389700 1.008000
26 L21_cD 1 PSM C8F 26 -0.01579300 12.010000
27 L21_hL 1 PSM H8F 27 0.00906700 1.008000
28 L21_hL 1 PSM H8G 28 0.00906700 1.008000
29 L21_cD 1 PSM C7F 29 -0.01963000 12.010000
30 L21_hL 1 PSM H7F 30 0.01104100 1.008000
31 L21_hL 1 PSM H7G 31 0.01104100 1.008000
32 L21_cD 1 PSM C6F 32 -0.02442700 12.010000
33 L21_hL 1 PSM H6F 33 0.01333400 1.008000
34 L21_hL 1 PSM H6G 34 0.01333400 1.008000
35 L21_cD 1 PSM C5F 35 -0.02938700 12.010000
36 L21_hL 1 PSM H5F 36 0.01676300 1.008000
37 L21_hL 1 PSM H5G 37 0.01676300 1.008000
38 L21_cD 1 PSM C4F 38 -0.03009900 12.010000
39 L21_hL 1 PSM H4F 39 0.02087700 1.008000
40 L21_hL 1 PSM H4G 40 0.02087700 1.008000
41 L21_cD 1 PSM C3F 41 -0.00488200 12.010000
42 L21_hL 1 PSM H3F 42 0.01900700 1.008000
43 L21_hL 1 PSM H3G 43 0.01900700 1.008000
44 L21_cD 1 PSM C2F 44 -0.14925900 12.010000
45 L21_hL 1 PSM H2F 45 0.04734500 1.008000
46 L21_hL 1 PSM H2G 46 0.04734500 1.008000
47 L21_cA 1 PSM C2 47 0.01273900 12.010000
48 L21_hE 1 PSM HX 48 0.08745500 1.008000
49 L21_cA 1 PSM C3 49 0.17662500 12.010000
50 L21_hE 1 PSM HA 50 0.05162200 1.008000
51 L21_hE 1 PSM HB 51 0.05162200 1.008000
52 L21_oT 1 PSM O31 52 -0.53335600 16.000000
53 L21_pA 1 PSM P31 53 1.32476200 30.970000
54 L21_oT 1 PSM O32 54 -0.45930800 16.000000
55 L21_cA 1 PSM C31 55 0.28244700 12.010000
56 L21_hE 1 PSM H1A 56 0.04988600 1.008000
57 L21_hE 1 PSM H1B 57 0.04988600 1.008000
58 L21_cA 1 PSM C32 58 -0.49366500 12.010000
59 L21_hX 1 PSM H2A 59 0.23384000 1.008000
60 L21_hX 1 PSM H2B 60 0.23384000 1.008000
61 L21_nA 1 PSM N31 61 0.24527500 14.010000
62 L21_cA 1 PSM C33 62 -0.38661100 12.010000
63 L21_hX 1 PSM H3A 63 0.19156900 1.008000
64 L21_hX 1 PSM H3B 64 0.19156900 1.008000
65 L21_hX 1 PSM H3C 65 0.19156900 1.008000
66 L21_cA 1 PSM C34 66 -0.38661100 12.010000
67 L21_hX 1 PSM H4A 67 0.19156900 1.008000
68 L21_hX 1 PSM H4B 68 0.19156900 1.008000
69 L21_hX 1 PSM H4C 69 0.19156900 1.008000
70 L21_cA 1 PSM C35 70 -0.38661100 12.010000
71 L21_hX 1 PSM H5A 71 0.19156900 1.008000
72 L21_hX 1 PSM H5B 72 0.19156900 1.008000
73 L21_hX 1 PSM H5C 73 0.19156900 1.008000
74 L21_oP 1 PSM O33 74 -0.88478900 16.000000
75 L21_oP 1 PSM O34 75 -0.88478900 16.000000
76 L21_nN 1 PSM N11 76 -0.38841000 14.010000
77 L21_hN 1 PSM H11 77 0.27359200 1.008000
78 L21_cC 1 PSM C11 78 0.61723100 12.010000
79 L21_oC 1 PSM O12 79 -0.64530300 16.000000
80 L21_cA 1 PSM C1 80 0.32309200 12.010000
81 L21_hE 1 PSM HR 81 0.06920800 1.008000
82 L21_oH 1 PSM O22 82 -0.72303300 16.000000
83 L21_hO 1 PSM H22 83 0.43496400 1.008000
84 L21_cD 1 PSM C18S 84 -0.19999900 12.010000
85 L21_hL 1 PSM H18S 85 0.04947100 1.008000
86 L21_hL 1 PSM H18T 86 0.04947100 1.008000
87 L21_hL 1 PSM H18U 87 0.04947100 1.008000
88 L21_cD 1 PSM C17S 88 -0.04678100 12.010000
89 L21_hL 1 PSM H17S 89 0.02648400 1.008000
90 L21_hL 1 PSM H17T 90 0.02648400 1.008000
91 L21_cD 1 PSM C16S 91 0.04464800 12.010000
92 L21_hL 1 PSM H16S 92 0.01097000 1.008000
93 L21_hL 1 PSM H16T 93 0.01097000 1.008000
94 L21_cD 1 PSM C15S 94 -0.11922500 12.010000
95 L21_hL 1 PSM H15S 95 0.04033000 1.008000
96 L21_hL 1 PSM H15T 96 0.04033000 1.008000
97 L21_cD 1 PSM C14S 97 0.00104800 12.010000
98 L21_hL 1 PSM H14S 98 0.01693500 1.008000
99 L21_hL 1 PSM H14T 99 0.01693500 1.008000
100 L21_cD 1 PSM C13S 100 -0.07941700 12.010000
101 L21_hL 1 PSM H13S 101 0.02350200 1.008000
102 L21_hL 1 PSM H13T 102 0.02350200 1.008000
103 L21_cD 1 PSM C12S 103 -0.06637200 12.010000
104 L21_hL 1 PSM H12S 104 0.02172300 1.008000
105 L21_hL 1 PSM H12T 105 0.02172300 1.008000
106 L21_cD 1 PSM C11S 106 0.05335200 12.010000
107 L21_hL 1 PSM H11S 107 0.02020000 1.008000
108 L21_hL 1 PSM H11T 108 0.02020000 1.008000
109 L21_cD 1 PSM C10S 109 -0.18788900 12.010000
110 L21_hL 1 PSM H10S 110 0.04690900 1.008000
111 L21_hL 1 PSM H10T 111 0.04690900 1.008000
112 L21_cD 1 PSM C9S 112 0.04928800 12.010000
113 L21_hL 1 PSM H9S 113 0.00604500 1.008000
114 L21_hL 1 PSM H9T 114 0.00604500 1.008000
115 L21_cD 1 PSM C8S 115 -0.01299700 12.010000
116 L21_hL 1 PSM H8S 116 0.00322300 1.008000
117 L21_hL 1 PSM H8T 117 0.00322300 1.008000
118 L21_cD 1 PSM C7S 118 0.09317100 12.010000
119 L21_hL 1 PSM H7S 119 -0.01169000 1.008000
120 L21_hL 1 PSM H7T 120 -0.01169000 1.008000
121 L21_cD 1 PSM C6S 121 -0.25813800 12.010000
122 L21_hL 1 PSM H6S 122 0.07684300 1.008000
123 L21_hL 1 PSM H6T 123 0.07684300 1.008000
124 L21_cB 1 PSM C5S 124 0.02829000 12.010000
125 L21_hB 1 PSM H5S 125 0.11628100 1.008000
126 L21_cB 1 PSM C4S 126 -0.34188900 12.010000
127 L21_hB 1 PSM H4S 127 0.14555000 1.008000

[ bonds ]
;    ai     aj funct         c0         c1         c2         c3
     44     78     1   0.15080 274721.440000
     41     44     1   0.15350 253634.080000
     38     41     1   0.15350 253634.080000
     35     38     1   0.15350 253634.080000
     32     35     1   0.15350 253634.080000
     29     32     1   0.15350 253634.080000
     26     29     1   0.15350 253634.080000
     23     26     1   0.15350 253634.080000
     20     23     1   0.15350 253634.080000
     17     20     1   0.15350 253634.080000
     14     17     1   0.15350 253634.080000
     11     14     1   0.15350 253634.080000
      8     11     1   0.15350 253634.080000
      5      8     1   0.15350 253634.080000
      1      5     1   0.15350 253634.080000
     80     82     1   0.14260 262838.880000
     80    126     1   0.15080 274721.440000
     78     79     1   0.12140 542246.400000
     76     78     1   0.13450 400157.760000
     61     66     1   0.14990 245684.480000
     61     70     1   0.14990 245684.480000
     61     62     1   0.14990 245684.480000
     58     61     1   0.14990 245684.480000
     55     58     1   0.15350 253634.080000
     54     55     1   0.14390 252295.200000
     53     54     1   0.16100 192464.000000
     53     74     1   0.14800 439320.000000
     53     75     1   0.14800 439320.000000
     52     53     1   0.16100 192464.000000
     49     52     1   0.14390 252295.200000
     47     76     1   0.14600 276646.080000
     47     49     1   0.15350 253634.080000
     47     80     1   0.15350 253634.080000
    124    126     1   0.13240 493460.960000
    121    124     1   0.15080 274721.440000
    118    121     1   0.15350 253634.080000
    115    118     1   0.15350 253634.080000
    112    115     1   0.15350 253634.080000
    109    112     1   0.15350 253634.080000
    106    109     1   0.15350 253634.080000
    103    106     1   0.15350 253634.080000
    100    103     1   0.15350 253634.080000
     97    100     1   0.15350 253634.080000
     94     97     1   0.15350 253634.080000
     91     94     1   0.15350 253634.080000
     88     91     1   0.15350 253634.080000
     84     88     1   0.15350 253634.080000
     44     45     1   0.10920 282252.640000
     44     46     1   0.10920 282252.640000
     41     42     1   0.10920 282252.640000
     41     43     1   0.10920 282252.640000
     38     39     1   0.10920 282252.640000
     38     40     1   0.10920 282252.640000
     35     36     1   0.10920 282252.640000
     35     37     1   0.10920 282252.640000
     32     33     1   0.10920 282252.640000
     32     34     1   0.10920 282252.640000
     29     30     1   0.10920 282252.640000
     29     31     1   0.10920 282252.640000
     26     27     1   0.10920 282252.640000
     26     28     1   0.10920 282252.640000
     23     24     1   0.10920 282252.640000
     23     25     1   0.10920 282252.640000
     20     21     1   0.10920 282252.640000
     20     22     1   0.10920 282252.640000
     17     18     1   0.10920 282252.640000
     17     19     1   0.10920 282252.640000
     14     15     1   0.10920 282252.640000
     14     16     1   0.10920 282252.640000
     11     12     1   0.10920 282252.640000
     11     13     1   0.10920 282252.640000
      8      9     1   0.10920 282252.640000
      8     10     1   0.10920 282252.640000
      5      6     1   0.10920 282252.640000
      5      7     1   0.10920 282252.640000
      1      2     1   0.10920 282252.640000
      1      3     1   0.10920 282252.640000
      1      4     1   0.10920 282252.640000
     82     83     1   0.09740 309281.280000
     80     81     1   0.10930 281081.120000
     76     77     1   0.10090 343255.360000
     70     73     1   0.10910 283424.160000
     70     71     1   0.10910 283424.160000
     70     72     1   0.10910 283424.160000
     66     69     1   0.10910 283424.160000
     66     68     1   0.10910 283424.160000
     66     67     1   0.10910 283424.160000
     62     63     1   0.10910 283424.160000
     62     64     1   0.10910 283424.160000
     62     65     1   0.10910 283424.160000
     58     59     1   0.10910 283424.160000
     58     60     1   0.10910 283424.160000
     55     57     1   0.10930 281081.120000
     55     56     1   0.10930 281081.120000
     49     51     1   0.10930 281081.120000
     49     50     1   0.10930 281081.120000
     47     48     1   0.10930 281081.120000
    126    127     1   0.10870 288110.240000
    124    125     1   0.10870 288110.240000
    121    122     1   0.10920 282252.640000
    121    123     1   0.10920 282252.640000
    118    120     1   0.10920 282252.640000
    118    119     1   0.10920 282252.640000
    115    116     1   0.10920 282252.640000
    115    117     1   0.10920 282252.640000
    112    114     1   0.10920 282252.640000
    112    113     1   0.10920 282252.640000
    109    111     1   0.10920 282252.640000
    109    110     1   0.10920 282252.640000
    106    107     1   0.10920 282252.640000
    106    108     1   0.10920 282252.640000
    103    104     1   0.10920 282252.640000
    103    105     1   0.10920 282252.640000
    100    102     1   0.10920 282252.640000
    100    101     1   0.10920 282252.640000
     97     99     1   0.10920 282252.640000
     97     98     1   0.10920 282252.640000
     94     96     1   0.10920 282252.640000
     94     95     1   0.10920 282252.640000
     91     92     1   0.10920 282252.640000
     91     93     1   0.10920 282252.640000
     88     90     1   0.10920 282252.640000
     88     89     1   0.10920 282252.640000
     84     86     1   0.10920 282252.640000
     84     85     1   0.10920 282252.640000
     84     87     1   0.10920 282252.640000


[ pairs ]
;    ai     aj funct         c0         c1         c2         c3
     44     47     1
     41     76     1
     41     79     1
     38     78     1
     35     44     1
     32     41     1
     29     38     1
     26     35     1
     23     32     1
     20     29     1
     17     26     1
     14     23     1
     11     20     1
      8     17     1
      5     14     1
      1     11     1
     82    124     1
     80    121     1
     78     80     1
     76     82     1
     76    126     1
     55     74     1
     55     75     1
     55     66     1
     55     70     1
     55     62     1
     54     61     1
     53     58     1
     52     76     1
     52     80     1
     52     55     1
     49     78     1
     49     82     1
     49    126     1
     49     54     1
     49     74     1
     49     75     1
     47     79     1
     47     53     1
     47    124     1
    118    126     1
    115    124     1
    112    121     1
    109    118     1
    106    115     1
    103    112     1
    100    109     1
     97    106     1
     94    103     1
     91    100     1
     88     97     1
     84     94     1
     46     76     1
     46     79     1
     45     76     1
     45     79     1
     44     77     1
     43     45     1
     43     46     1
     43     78     1
     42     45     1
     42     46     1
     42     78     1
     40     42     1
     40     43     1
     40     44     1
     39     42     1
     39     43     1
     39     44     1
     38     45     1
     38     46     1
     37     39     1
     37     40     1
     37     41     1
     36     39     1
     36     40     1
     36     41     1
     35     42     1
     35     43     1
     34     36     1
     34     37     1
     34     38     1
     33     36     1
     33     37     1
     33     38     1
     32     39     1
     32     40     1
     31     33     1
     31     34     1
     31     35     1
     30     33     1
     30     34     1
     30     35     1
     29     36     1
     29     37     1
     28     30     1
     28     31     1
     28     32     1
     27     30     1
     27     31     1
     27     32     1
     26     33     1
     26     34     1
     25     27     1
     25     28     1
     25     29     1
     24     27     1
     24     28     1
     24     29     1
     23     30     1
     23     31     1
     22     24     1
     22     25     1
     22     26     1
     21     24     1
     21     25     1
     21     26     1
     20     27     1
     20     28     1
     19     21     1
     19     22     1
     19     23     1
     18     21     1
     18     22     1
     18     23     1
     17     24     1
     17     25     1
     16     18     1
     16     19     1
     16     20     1
     15     18     1
     15     19     1
     15     20     1
     14     21     1
     14     22     1
     13     15     1
     13     16     1
     13     17     1
     12     15     1
     12     16     1
     12     17     1
     11     18     1
     11     19     1
     10     12     1
     10     13     1
     10     14     1
      9     12     1
      9     13     1
      9     14     1
      8     15     1
      8     16     1
      7      9     1
      7     10     1
      7     11     1
      6      9     1
      6     10     1
      6     11     1
      5     12     1
      5     13     1
      4      6     1
      4      7     1
      4      8     1
      3      6     1
      3      7     1
      3      8     1
      2      6     1
      2      7     1
      2      8     1
      1      9     1
      1     10     1
     83    126     1
     82    127     1
     81     83     1
     81    124     1
     81    127     1
     80    125     1
     77     80     1
     77     79     1
     76     81     1
     69     70     1
     68     70     1
     67     70     1
     66     73     1
     66     71     1
     66     72     1
     65     66     1
     65     70     1
     64     66     1
     64     70     1
     63     66     1
     63     70     1
     62     69     1
     62     68     1
     62     67     1
     62     73     1
     62     71     1
     62     72     1
     60     66     1
     60     70     1
     60     62     1
     59     66     1
     59     70     1
     59     62     1
     58     69     1
     58     68     1
     58     67     1
     58     73     1
     58     71     1
     58     72     1
     58     63     1
     58     64     1
     58     65     1
     57     61     1
     57     59     1
     57     60     1
     56     61     1
     56     59     1
     56     60     1
     54     59     1
     54     60     1
     53     57     1
     53     56     1
     51     76     1
     51     80     1
     51     53     1
     50     76     1
     50     80     1
     50     53     1
     49     77     1
     49     81     1
     48     78     1
     48     77     1
     48     52     1
     48     51     1
     48     50     1
     48     81     1
     48     82     1
     48    126     1
     47     83     1
     47    127     1
    125    127     1
    123    126     1
    123    125     1
    122    126     1
    122    125     1
    121    127     1
    120    124     1
    120    122     1
    120    123     1
    119    124     1
    119    122     1
    119    123     1
    118    125     1
    117    121     1
    117    120     1
    117    119     1
    116    121     1
    116    120     1
    116    119     1
    115    122     1
    115    123     1
    114    118     1
    114    116     1
    114    117     1
    113    118     1
    113    116     1
    113    117     1
    112    120     1
    112    119     1
    111    115     1
    111    114     1
    111    113     1
    110    115     1
    110    114     1
    110    113     1
    109    116     1
    109    117     1
    108    112     1
    108    111     1
    108    110     1
    107    112     1
    107    111     1
    107    110     1
    106    114     1
    106    113     1
    105    109     1
    105    107     1
    105    108     1
    104    109     1
    104    107     1
    104    108     1
    103    111     1
    103    110     1
    102    106     1
    102    104     1
    102    105     1
    101    106     1
    101    104     1
    101    105     1
    100    107     1
    100    108     1
     99    103     1
     99    102     1
     99    101     1
     98    103     1
     98    102     1
     98    101     1
     97    104     1
     97    105     1
     96    100     1
     96     99     1
     96     98     1
     95    100     1
     95     99     1
     95     98     1
     94    102     1
     94    101     1
     93     97     1
     93     96     1
     93     95     1
     92     97     1
     92     96     1
     92     95     1
     91     99     1
     91     98     1
     90     94     1
     90     92     1
     90     93     1
     89     94     1
     89     92     1
     89     93     1
     88     96     1
     88     95     1
     87     91     1
     87     90     1
     87     89     1
     86     91     1
     86     90     1
     86     89     1
     85     91     1
     85     90     1
     85     89     1
     84     92     1
     84     93     1


[ angles ]
;    ai     aj     ak funct         c0         c1         c2         c3
     44     78     76     1   115.1500496 567.852480
     44     78     79     1   123.1100526 569.275040
     41     44     78     1   110.5300474 533.794720
     38     41     44     1   112.0500483 394.969600
     35     38     41     1   112.0500483 394.969600
     32     35     38     1   112.0500483 394.969600
     29     32     35     1   112.0500483 394.969600
     26     29     32     1   112.0500483 394.969600
     23     26     29     1   112.0500483 394.969600
     20     23     26     1   112.0500483 394.969600
     17     20     23     1   112.0500483 394.969600
     14     17     20     1   112.0500483 394.969600
     11     14     17     1   112.0500483 394.969600
      8     11     14     1   112.0500483 394.969600
      5      8     11     1   112.0500483 394.969600
      1      5      8     1   112.0500483 394.969600
     82     80    126     1   110.2100471 570.530240
     80    126    124     1   123.4200531 538.313440
     76     47     80     1   112.1300481 551.032800
     76     78     79     1   122.0300524 634.545440
     74     53     75     1   119.9000514 1171.520000
     66     61     70     1   110.6400473 525.845120
     62     61     66     1   110.6400473 525.845120
     62     61     70     1   110.6400473 525.845120
     58     61     66     1   110.6400473 525.845120
     58     61     70     1   110.6400473 525.845120
     58     61     62     1   110.6400473 525.845120
     55     58     61     1   114.3200492 539.317600
     54     53     74     1   108.2300464 836.800000
     54     53     75     1   108.2300464 836.800000
     54     55     58     1   108.4200467 567.183040
     53     54     55     1   120.5000516 836.800000
     52     53     54     1   102.6000440 753.120000
     52     53     74     1   108.2300464 836.800000
     52     53     75     1   108.2300464 836.800000
     49     47     76     1   112.1300481 551.032800
     49     47     80     1   110.6300475 528.941280
     49     52     53     1   120.5000516 836.800000
     47     76     78     1   121.3500523 534.882560
     47     49     52     1   108.4200467 567.183040
     47     80     82     1   109.4300470 566.680960
     47     80    126     1   111.4400476 531.619040
    121    124    126     1   123.4200531 538.313440
    118    121    124     1   111.4400476 531.619040
    115    118    121     1   112.0500483 394.969600
    112    115    118     1   112.0500483 394.969600
    109    112    115     1   112.0500483 394.969600
    106    109    112     1   112.0500483 394.969600
    103    106    109     1   112.0500483 394.969600
    100    103    106     1   112.0500483 394.969600
     97    100    103     1   112.0500483 394.969600
     94     97    100     1   112.0500483 394.969600
     91     94     97     1   112.0500483 394.969600
     88     91     94     1   112.0500483 394.969600
     84     88     91     1   112.0500483 394.969600
     46     44     78     1   109.6800468 394.969600
     45     44     46     1   108.3500467 329.950240
     45     44     78     1   109.6800468 394.969600
     43     41     44     1   110.0500475 388.024160
     42     41     43     1   108.3500467 329.950240
     42     41     44     1   110.0500475 388.024160
     41     44     45     1   110.0500475 388.024160
     41     44     46     1   110.0500475 388.024160
     40     38     41     1   110.0500475 388.024160
     39     38     40     1   108.3500467 329.950240
     39     38     41     1   110.0500475 388.024160
     38     41     42     1   110.0500475 388.024160
     38     41     43     1   110.0500475 388.024160
     37     35     38     1   110.0500475 388.024160
     36     35     37     1   108.3500467 329.950240
     36     35     38     1   110.0500475 388.024160
     35     38     39     1   110.0500475 388.024160
     35     38     40     1   110.0500475 388.024160
     34     32     35     1   110.0500475 388.024160
     33     32     34     1   108.3500467 329.950240
     33     32     35     1   110.0500475 388.024160
     32     35     36     1   110.0500475 388.024160
     32     35     37     1   110.0500475 388.024160
     31     29     32     1   110.0500475 388.024160
     30     29     31     1   108.3500467 329.950240
     30     29     32     1   110.0500475 388.024160
     29     32     33     1   110.0500475 388.024160
     29     32     34     1   110.0500475 388.024160
     28     26     29     1   110.0500475 388.024160
     27     26     28     1   108.3500467 329.950240
     27     26     29     1   110.0500475 388.024160
     26     29     30     1   110.0500475 388.024160
     26     29     31     1   110.0500475 388.024160
     25     23     26     1   110.0500475 388.024160
     24     23     25     1   108.3500467 329.950240
     24     23     26     1   110.0500475 388.024160
     23     26     27     1   110.0500475 388.024160
     23     26     28     1   110.0500475 388.024160
     22     20     23     1   110.0500475 388.024160
     21     20     22     1   108.3500467 329.950240
     21     20     23     1   110.0500475 388.024160
     20     23     24     1   110.0500475 388.024160
     20     23     25     1   110.0500475 388.024160
     19     17     20     1   110.0500475 388.024160
     18     17     19     1   108.3500467 329.950240
     18     17     20     1   110.0500475 388.024160
     17     20     21     1   110.0500475 388.024160
     17     20     22     1   110.0500475 388.024160
     16     14     17     1   110.0500475 388.024160
     15     14     16     1   108.3500467 329.950240
     15     14     17     1   110.0500475 388.024160
     14     17     18     1   110.0500475 388.024160
     14     17     19     1   110.0500475 388.024160
     13     11     14     1   110.0500475 388.024160
     12     11     13     1   108.3500467 329.950240
     12     11     14     1   110.0500475 388.024160
     11     14     15     1   110.0500475 388.024160
     11     14     16     1   110.0500475 388.024160
     10      8     11     1   110.0500475 388.024160
      9      8     10     1   108.3500467 329.950240
      9      8     11     1   110.0500475 388.024160
      8     11     12     1   110.0500475 388.024160
      8     11     13     1   110.0500475 388.024160
      7      5      8     1   110.0500475 388.024160
      6      5      7     1   108.3500467 329.950240
      6      5      8     1   110.0500475 388.024160
      5      8      9     1   110.0500475 388.024160
      5      8     10     1   110.0500475 388.024160
      4      1      5     1   110.0500475 388.024160
      3      1      4     1   108.3500467 329.950240
      3      1      5     1   110.0500475 388.024160
      2      1      3     1   108.3500467 329.950240
      2      1      4     1   108.3500467 329.950240
      2      1      5     1   110.0500475 388.024160
      1      5      6     1   110.0500475 388.024160
      1      5      7     1   110.0500475 388.024160
     81     80     82     1   109.8800469 426.516960
     81     80    126     1   110.4600475 393.547040
     80     82     83     1   108.1600465 394.049120
     80    126    127     1   117.3000503 382.082880
     77     76     78     1   118.4600509 411.789280
     72     70     73     1   110.7400473 326.686720
     71     70     73     1   110.7400473 326.686720
     71     70     72     1   110.7400473 326.686720
     68     66     69     1   110.7400473 326.686720
     67     66     69     1   110.7400473 326.686720
     67     66     68     1   110.7400473 326.686720
     64     62     65     1   110.7400473 326.686720
     63     62     64     1   110.7400473 326.686720
     63     62     65     1   110.7400473 326.686720
     61     66     69     1   107.9100461 410.199360
     61     66     68     1   107.9100461 410.199360
     61     66     67     1   107.9100461 410.199360
     61     70     73     1   107.9100461 410.199360
     61     70     71     1   107.9100461 410.199360
     61     70     72     1   107.9100461 410.199360
     61     62     63     1   107.9100461 410.199360
     61     62     64     1   107.9100461 410.199360
     61     62     65     1   107.9100461 410.199360
     60     58     61     1   107.9100461 410.199360
     59     58     61     1   107.9100461 410.199360
     59     58     60     1   110.7400473 326.686720
     57     55     58     1   110.0700471 387.940480
     56     55     58     1   110.0700471 387.940480
     56     55     57     1   109.5500472 327.858240
     55     58     59     1   111.7400478 385.095360
     55     58     60     1   111.7400478 385.095360
     54     55     57     1   108.8200469 425.429120
     54     55     56     1   108.8200469 425.429120
     51     49     52     1   108.8200469 425.429120
     50     49     52     1   108.8200469 425.429120
     50     49     51     1   109.5500472 327.858240
     48     47     76     1   109.3200471 416.893760
     48     47     49     1   110.0700471 387.940480
     48     47     80     1   110.0700471 387.940480
     47     76     77     1   116.7800498 385.262720
     47     49     51     1   110.0700471 387.940480
     47     49     50     1   110.0700471 387.940480
     47     80     81     1   110.0700471 387.940480
    125    124    126     1   120.9400517 418.734720
    124    126    127     1   120.9400517 418.734720
    123    121    124     1   110.4900475 393.547040
    122    121    124     1   110.4900475 393.547040
    122    121    123     1   108.3500467 329.950240
    121    124    125     1   117.3000503 382.082880
    120    118    121     1   110.0500475 388.024160
    119    118    121     1   110.0500475 388.024160
    119    118    120     1   108.3500467 329.950240
    118    121    122     1   110.0500475 388.024160
    118    121    123     1   110.0500475 388.024160
    117    115    118     1   110.0500475 388.024160
    116    115    118     1   110.0500475 388.024160
    116    115    117     1   108.3500467 329.950240
    115    118    120     1   110.0500475 388.024160
    115    118    119     1   110.0500475 388.024160
    114    112    115     1   110.0500475 388.024160
    113    112    115     1   110.0500475 388.024160
    113    112    114     1   108.3500467 329.950240
    112    115    116     1   110.0500475 388.024160
    112    115    117     1   110.0500475 388.024160
    111    109    112     1   110.0500475 388.024160
    110    109    112     1   110.0500475 388.024160
    110    109    111     1   108.3500467 329.950240
    109    112    114     1   110.0500475 388.024160
    109    112    113     1   110.0500475 388.024160
    108    106    109     1   110.0500475 388.024160
    107    106    109     1   110.0500475 388.024160
    107    106    108     1   108.3500467 329.950240
    106    109    111     1   110.0500475 388.024160
    106    109    110     1   110.0500475 388.024160
    105    103    106     1   110.0500475 388.024160
    104    103    106     1   110.0500475 388.024160
    104    103    105     1   108.3500467 329.950240
    103    106    107     1   110.0500475 388.024160
    103    106    108     1   110.0500475 388.024160
    102    100    103     1   110.0500475 388.024160
    101    100    103     1   110.0500475 388.024160
    101    100    102     1   108.3500467 329.950240
    100    103    104     1   110.0500475 388.024160
    100    103    105     1   110.0500475 388.024160
     99     97    100     1   110.0500475 388.024160
     98     97    100     1   110.0500475 388.024160
     98     97     99     1   108.3500467 329.950240
     97    100    102     1   110.0500475 388.024160
     97    100    101     1   110.0500475 388.024160
     96     94     97     1   110.0500475 388.024160
     95     94     97     1   110.0500475 388.024160
     95     94     96     1   108.3500467 329.950240
     94     97     99     1   110.0500475 388.024160
     94     97     98     1   110.0500475 388.024160
     93     91     94     1   110.0500475 388.024160
     92     91     94     1   110.0500475 388.024160
     92     91     93     1   108.3500467 329.950240
     91     94     96     1   110.0500475 388.024160
     91     94     95     1   110.0500475 388.024160
     90     88     91     1   110.0500475 388.024160
     89     88     91     1   110.0500475 388.024160
     89     88     90     1   108.3500467 329.950240
     88     91     92     1   110.0500475 388.024160
     88     91     93     1   110.0500475 388.024160
     87     84     88     1   110.0500475 388.024160
     86     84     88     1   110.0500475 388.024160
     86     84     87     1   108.3500467 329.950240
     85     84     88     1   110.0500475 388.024160
     85     84     86     1   108.3500467 329.950240
     85     84     87     1   108.3500467 329.950240
     84     88     90     1   110.0500475 388.024160
     84     88     89     1   110.0500475 388.024160


[ dihedrals ]
;    ai     aj     ak     al funct         c0         c1         c2         c3         c4         c5
     44     78     76     47     1  180.0000771  10.4600000  2
     41     44     78     76     1  180.0000771  0.0000000  2
     41     44     78     79     1  180.0000771  0.0000000  2
     38     41     44     78     1  0.0000000  0.6527040  3
     35     38     41     44     1  0.0000000  0.4184000  1
     35     38     41     44     1  0.0000000  0.4184000  2
     35     38     41     44     1  0.0000000  1.2552000  3
     35     38     41     44     1  0.0000000  0.4184000  4
     35     38     41     44     1  0.0000000  0.4184000  5
     32     35     38     41     1  0.0000000  0.4184000  1
     32     35     38     41     1  0.0000000  0.4184000  2
     32     35     38     41     1  0.0000000  1.2552000  3
     32     35     38     41     1  0.0000000  0.4184000  4
     32     35     38     41     1  0.0000000  0.4184000  5
     29     32     35     38     1  0.0000000  0.4184000  1
     29     32     35     38     1  0.0000000  0.4184000  2
     29     32     35     38     1  0.0000000  1.2552000  3
     29     32     35     38     1  0.0000000  0.4184000  4
     29     32     35     38     1  0.0000000  0.4184000  5
     26     29     32     35     1  0.0000000  0.4184000  1
     26     29     32     35     1  0.0000000  0.4184000  2
     26     29     32     35     1  0.0000000  1.2552000  3
     26     29     32     35     1  0.0000000  0.4184000  4
     26     29     32     35     1  0.0000000  0.4184000  5
     23     26     29     32     1  0.0000000  0.4184000  1
     23     26     29     32     1  0.0000000  0.4184000  2
     23     26     29     32     1  0.0000000  1.2552000  3
     23     26     29     32     1  0.0000000  0.4184000  4
     23     26     29     32     1  0.0000000  0.4184000  5
     20     23     26     29     1  0.0000000  0.4184000  1
     20     23     26     29     1  0.0000000  0.4184000  2
     20     23     26     29     1  0.0000000  1.2552000  3
     20     23     26     29     1  0.0000000  0.4184000  4
     20     23     26     29     1  0.0000000  0.4184000  5
     17     20     23     26     1  0.0000000  0.4184000  1
     17     20     23     26     1  0.0000000  0.4184000  2
     17     20     23     26     1  0.0000000  1.2552000  3
     17     20     23     26     1  0.0000000  0.4184000  4
     17     20     23     26     1  0.0000000  0.4184000  5
     14     17     20     23     1  0.0000000  0.4184000  1
     14     17     20     23     1  0.0000000  0.4184000  2
     14     17     20     23     1  0.0000000  1.2552000  3
     14     17     20     23     1  0.0000000  0.4184000  4
     14     17     20     23     1  0.0000000  0.4184000  5
     11     14     17     20     1  0.0000000  0.4184000  1
     11     14     17     20     1  0.0000000  0.4184000  2
     11     14     17     20     1  0.0000000  1.2552000  3
     11     14     17     20     1  0.0000000  0.4184000  4
     11     14     17     20     1  0.0000000  0.4184000  5
      8     11     14     17     1  0.0000000  0.4184000  1
      8     11     14     17     1  0.0000000  0.4184000  2
      8     11     14     17     1  0.0000000  1.2552000  3
      8     11     14     17     1  0.0000000  0.4184000  4
      8     11     14     17     1  0.0000000  0.4184000  5
      5      8     11     14     1  0.0000000  0.4184000  1
      5      8     11     14     1  0.0000000  0.4184000  2
      5      8     11     14     1  0.0000000  1.2552000  3
      5      8     11     14     1  0.0000000  0.4184000  4
      5      8     11     14     1  0.0000000  0.4184000  5
      1      5      8     11     1  0.0000000  0.4184000  1
      1      5      8     11     1  0.0000000  0.4184000  2
      1      5      8     11     1  0.0000000  1.2552000  3
      1      5      8     11     1  0.0000000  0.4184000  4
      1      5      8     11     1  0.0000000  0.4184000  5
     82     80    126    124     1  0.0000000  0.0000000  2
     80    126    124    121     1  180.0000771  7.9496000  1
     80    126    124    121     1  180.0000771  27.8236000  2
     78     76     47     80     1  0.0000000  0.0000000  2
     76     47     80     82     1  0.0000000  0.6527040  3
     76     47     80    126     1  60.0000257  1.6736000  1
     76     47     80    126     1  180.0000771  5.4392000  2
     76     47     80    126     1  0.0000000  10.0416000  3
     55     54     53     74     1  0.0000000  0.0000000  1
     55     54     53     74     1  0.0000000  0.8368000  2
     55     54     53     74     1  0.0000000  0.0000000  3
     55     54     53     74     1  0.0000000  0.0000000  4
     55     54     53     74     1  0.0000000  0.0000000  5
     55     54     53     75     1  0.0000000  0.0000000  1
     55     54     53     75     1  0.0000000  0.8368000  2
     55     54     53     75     1  0.0000000  0.0000000  3
     55     54     53     75     1  0.0000000  0.0000000  4
     55     54     53     75     1  0.0000000  0.0000000  5
     55     58     61     66     1  0.0000000  0.6527040  3
     55     58     61     70     1  0.0000000  0.6527040  3
     55     58     61     62     1  0.0000000  0.6527040  3
     54     55     58     61     1  0.0000000  4.1840000  3
     53     54     55     58     1  180.0000771  -3.3472000  2
     53     54     55     58     1  0.0000000  0.0000000  3
     52     49     47     76     1  0.0000000  0.0000000  3
     52     49     47     80     1  180.0000771  3.3472000  1
     52     49     47     80     1  120.0000514  0.8368000  2
     52     49     47     80     1  60.0000257  1.6736000  3
     52     53     54     55     1  0.0000000  9.6232000  2
     52     53     54     55     1  0.0000000  2.5104000  3
     49     47     76     78     1  0.0000000  0.0000000  2
     49     47     80     82     1  0.0000000  0.6510304  3
     49     47     80    126     1  0.0000000  0.0000000  1
     49     47     80    126     1  0.0000000  0.0000000  2
     49     47     80    126     1  0.0000000  0.0000000  3
     49     47     80    126     1  0.0000000  0.0000000  4
     49     47     80    126     1  0.0000000  0.0000000  5
     49     52     53     54     1  0.0000000  9.6232000  2
     49     52     53     54     1  0.0000000  2.5104000  3
     49     52     53     74     1  0.0000000  0.0000000  1
     49     52     53     74     1  0.0000000  0.8368000  2
     49     52     53     74     1  0.0000000  0.0000000  3
     49     52     53     74     1  0.0000000  0.0000000  4
     49     52     53     74     1  0.0000000  0.0000000  5
     49     52     53     75     1  0.0000000  0.0000000  1
     49     52     53     75     1  0.0000000  0.8368000  2
     49     52     53     75     1  0.0000000  0.0000000  3
     49     52     53     75     1  0.0000000  0.0000000  4
     49     52     53     75     1  0.0000000  0.0000000  5
     47     76     78     79     1  180.0000771  10.4600000  2
     47     49     52     53     1  180.0000771  -3.3472000  2
     47     49     52     53     1  0.0000000  0.0000000  3
     47     80    126    124     1  0.0000000  0.0000000  2
    118    121    124    126     1  0.0000000  2.5104000  1
    118    121    124    126     1  180.0000771  1.6736000  2
    118    121    124    126     1  180.0000771  1.6736000  3
    118    121    124    126     1  180.0000771  0.8368000  4
    118    121    124    126     1  180.0000771  0.8368000  5
    115    118    121    124     1  0.0000000  0.0000000  1
    115    118    121    124     1  0.0000000  0.0000000  2
    115    118    121    124     1  0.0000000  2.0920000  3
    115    118    121    124     1  0.0000000  0.0000000  4
    115    118    121    124     1  0.0000000  0.4184000  5
    112    115    118    121     1  0.0000000  0.4184000  1
    112    115    118    121     1  0.0000000  0.4184000  2
    112    115    118    121     1  0.0000000  1.2552000  3
    112    115    118    121     1  0.0000000  0.4184000  4
    112    115    118    121     1  0.0000000  0.4184000  5
    109    112    115    118     1  0.0000000  0.4184000  1
    109    112    115    118     1  0.0000000  0.4184000  2
    109    112    115    118     1  0.0000000  1.2552000  3
    109    112    115    118     1  0.0000000  0.4184000  4
    109    112    115    118     1  0.0000000  0.4184000  5
    106    109    112    115     1  0.0000000  0.4184000  1
    106    109    112    115     1  0.0000000  0.4184000  2
    106    109    112    115     1  0.0000000  1.2552000  3
    106    109    112    115     1  0.0000000  0.4184000  4
    106    109    112    115     1  0.0000000  0.4184000  5
    103    106    109    112     1  0.0000000  0.4184000  1
    103    106    109    112     1  0.0000000  0.4184000  2
    103    106    109    112     1  0.0000000  1.2552000  3
    103    106    109    112     1  0.0000000  0.4184000  4
    103    106    109    112     1  0.0000000  0.4184000  5
    100    103    106    109     1  0.0000000  0.4184000  1
    100    103    106    109     1  0.0000000  0.4184000  2
    100    103    106    109     1  0.0000000  1.2552000  3
    100    103    106    109     1  0.0000000  0.4184000  4
    100    103    106    109     1  0.0000000  0.4184000  5
     97    100    103    106     1  0.0000000  0.4184000  1
     97    100    103    106     1  0.0000000  0.4184000  2
     97    100    103    106     1  0.0000000  1.2552000  3
     97    100    103    106     1  0.0000000  0.4184000  4
     97    100    103    106     1  0.0000000  0.4184000  5
     94     97    100    103     1  0.0000000  0.4184000  1
     94     97    100    103     1  0.0000000  0.4184000  2
     94     97    100    103     1  0.0000000  1.2552000  3
     94     97    100    103     1  0.0000000  0.4184000  4
     94     97    100    103     1  0.0000000  0.4184000  5
     91     94     97    100     1  0.0000000  0.4184000  1
     91     94     97    100     1  0.0000000  0.4184000  2
     91     94     97    100     1  0.0000000  1.2552000  3
     91     94     97    100     1  0.0000000  0.4184000  4
     91     94     97    100     1  0.0000000  0.4184000  5
     88     91     94     97     1  0.0000000  0.4184000  1
     88     91     94     97     1  0.0000000  0.4184000  2
     88     91     94     97     1  0.0000000  1.2552000  3
     88     91     94     97     1  0.0000000  0.4184000  4
     88     91     94     97     1  0.0000000  0.4184000  5
     84     88     91     94     1  0.0000000  0.4184000  1
     84     88     91     94     1  0.0000000  0.4184000  2
     84     88     91     94     1  0.0000000  1.2552000  3
     84     88     91     94     1  0.0000000  0.4184000  4
     84     88     91     94     1  0.0000000  0.4184000  5
     44     76     78     79     4  180.0000771  4.6024000  2
     46     44     78     76     1  0.0000000  0.0000000  2
     46     44     78     79     1  0.0000000  3.3472000  1
     46     44     78     79     1  180.0000771  0.3347200  3
     45     44     78     76     1  0.0000000  0.0000000  2
     45     44     78     79     1  0.0000000  3.3472000  1
     45     44     78     79     1  180.0000771  0.3347200  3
     44     78     76     77     1  180.0000771  10.4600000  2
     43     41     44     45     1  0.0000000  0.6276000  3
     43     41     44     46     1  0.0000000  0.6276000  3
     43     41     44     78     1  0.0000000  0.6527040  3
     42     41     44     45     1  0.0000000  0.6276000  3
     42     41     44     46     1  0.0000000  0.6276000  3
     42     41     44     78     1  0.0000000  0.6527040  3
     40     38     41     42     1  0.0000000  0.6276000  3
     40     38     41     43     1  0.0000000  0.6276000  3
     40     38     41     44     1  0.0000000  0.6694400  3
     39     38     41     42     1  0.0000000  0.6276000  3
     39     38     41     43     1  0.0000000  0.6276000  3
     39     38     41     44     1  0.0000000  0.6694400  3
     38     41     44     45     1  0.0000000  0.6694400  3
     38     41     44     46     1  0.0000000  0.6694400  3
     37     35     38     39     1  0.0000000  0.6276000  3
     37     35     38     40     1  0.0000000  0.6276000  3
     37     35     38     41     1  0.0000000  0.6694400  3
     36     35     38     39     1  0.0000000  0.6276000  3
     36     35     38     40     1  0.0000000  0.6276000  3
     36     35     38     41     1  0.0000000  0.6694400  3
     35     38     41     42     1  0.0000000  0.6694400  3
     35     38     41     43     1  0.0000000  0.6694400  3
     34     32     35     36     1  0.0000000  0.6276000  3
     34     32     35     37     1  0.0000000  0.6276000  3
     34     32     35     38     1  0.0000000  0.6694400  3
     33     32     35     36     1  0.0000000  0.6276000  3
     33     32     35     37     1  0.0000000  0.6276000  3
     33     32     35     38     1  0.0000000  0.6694400  3
     32     35     38     39     1  0.0000000  0.6694400  3
     32     35     38     40     1  0.0000000  0.6694400  3
     31     29     32     33     1  0.0000000  0.6276000  3
     31     29     32     34     1  0.0000000  0.6276000  3
     31     29     32     35     1  0.0000000  0.6694400  3
     30     29     32     33     1  0.0000000  0.6276000  3
     30     29     32     34     1  0.0000000  0.6276000  3
     30     29     32     35     1  0.0000000  0.6694400  3
     29     32     35     36     1  0.0000000  0.6694400  3
     29     32     35     37     1  0.0000000  0.6694400  3
     28     26     29     30     1  0.0000000  0.6276000  3
     28     26     29     31     1  0.0000000  0.6276000  3
     28     26     29     32     1  0.0000000  0.6694400  3
     27     26     29     30     1  0.0000000  0.6276000  3
     27     26     29     31     1  0.0000000  0.6276000  3
     27     26     29     32     1  0.0000000  0.6694400  3
     26     29     32     33     1  0.0000000  0.6694400  3
     26     29     32     34     1  0.0000000  0.6694400  3
     25     23     26     27     1  0.0000000  0.6276000  3
     25     23     26     28     1  0.0000000  0.6276000  3
     25     23     26     29     1  0.0000000  0.6694400  3
     24     23     26     27     1  0.0000000  0.6276000  3
     24     23     26     28     1  0.0000000  0.6276000  3
     24     23     26     29     1  0.0000000  0.6694400  3
     23     26     29     30     1  0.0000000  0.6694400  3
     23     26     29     31     1  0.0000000  0.6694400  3
     22     20     23     24     1  0.0000000  0.6276000  3
     22     20     23     25     1  0.0000000  0.6276000  3
     22     20     23     26     1  0.0000000  0.6694400  3
     21     20     23     24     1  0.0000000  0.6276000  3
     21     20     23     25     1  0.0000000  0.6276000  3
     21     20     23     26     1  0.0000000  0.6694400  3
     20     23     26     27     1  0.0000000  0.6694400  3
     20     23     26     28     1  0.0000000  0.6694400  3
     19     17     20     21     1  0.0000000  0.6276000  3
     19     17     20     22     1  0.0000000  0.6276000  3
     19     17     20     23     1  0.0000000  0.6694400  3
     18     17     20     21     1  0.0000000  0.6276000  3
     18     17     20     22     1  0.0000000  0.6276000  3
     18     17     20     23     1  0.0000000  0.6694400  3
     17     20     23     24     1  0.0000000  0.6694400  3
     17     20     23     25     1  0.0000000  0.6694400  3
     16     14     17     18     1  0.0000000  0.6276000  3
     16     14     17     19     1  0.0000000  0.6276000  3
     16     14     17     20     1  0.0000000  0.6694400  3
     15     14     17     18     1  0.0000000  0.6276000  3
     15     14     17     19     1  0.0000000  0.6276000  3
     15     14     17     20     1  0.0000000  0.6694400  3
     14     17     20     21     1  0.0000000  0.6694400  3
     14     17     20     22     1  0.0000000  0.6694400  3
     13     11     14     15     1  0.0000000  0.6276000  3
     13     11     14     16     1  0.0000000  0.6276000  3
     13     11     14     17     1  0.0000000  0.6694400  3
     12     11     14     15     1  0.0000000  0.6276000  3
     12     11     14     16     1  0.0000000  0.6276000  3
     12     11     14     17     1  0.0000000  0.6694400  3
     11     14     17     18     1  0.0000000  0.6694400  3
     11     14     17     19     1  0.0000000  0.6694400  3
     10      8     11     12     1  0.0000000  0.6276000  3
     10      8     11     13     1  0.0000000  0.6276000  3
     10      8     11     14     1  0.0000000  0.6694400  3
      9      8     11     12     1  0.0000000  0.6276000  3
      9      8     11     13     1  0.0000000  0.6276000  3
      9      8     11     14     1  0.0000000  0.6694400  3
      8     11     14     15     1  0.0000000  0.6694400  3
      8     11     14     16     1  0.0000000  0.6694400  3
      7      5      8      9     1  0.0000000  0.6276000  3
      7      5      8     10     1  0.0000000  0.6276000  3
      7      5      8     11     1  0.0000000  0.6694400  3
      6      5      8      9     1  0.0000000  0.6276000  3
      6      5      8     10     1  0.0000000  0.6276000  3
      6      5      8     11     1  0.0000000  0.6694400  3
      5      8     11     12     1  0.0000000  0.6694400  3
      5      8     11     13     1  0.0000000  0.6694400  3
      4      1      5      6     1  0.0000000  0.6276000  3
      4      1      5      7     1  0.0000000  0.6276000  3
      4      1      5      8     1  0.0000000  0.6694400  3
      3      1      5      6     1  0.0000000  0.6276000  3
      3      1      5      7     1  0.0000000  0.6276000  3
      3      1      5      8     1  0.0000000  0.6694400  3
      2      1      5      6     1  0.0000000  0.6276000  3
      2      1      5      7     1  0.0000000  0.6276000  3
      2      1      5      8     1  0.0000000  0.6694400  3
      1      5      8      9     1  0.0000000  0.6694400  3
      1      5      8     10     1  0.0000000  0.6694400  3
     83     82     80    126     1  0.0000000  1.0460000  1
     83     82     80    126     1  0.0000000  0.6694400  3
     82     80    126    127     1  0.0000000  0.0000000  2
     81     80     82     83     1  0.0000000  2.0920000  3
     81     80    126    124     1  0.0000000  0.0000000  2
     81     80    126    127     1  0.0000000  0.0000000  2
     80    126    124    125     1  180.0000771  27.8236000  2
     77     76     47     80     1  0.0000000  0.0000000  2
     77     76     78     79     1  180.0000771  10.4600000  2
     76     47     80     81     1  0.0000000  0.6527040  3
     69     66     61     70     1  0.0000000  0.6527040  3
     68     66     61     70     1  0.0000000  0.6527040  3
     67     66     61     70     1  0.0000000  0.6527040  3
     66     61     70     73     1  0.0000000  0.6527040  3
     66     61     70     71     1  0.0000000  0.6527040  3
     66     61     70     72     1  0.0000000  0.6527040  3
     65     62     61     66     1  0.0000000  0.6527040  3
     65     62     61     70     1  0.0000000  0.6527040  3
     64     62     61     66     1  0.0000000  0.6527040  3
     64     62     61     70     1  0.0000000  0.6527040  3
     63     62     61     66     1  0.0000000  0.6527040  3
     63     62     61     70     1  0.0000000  0.6527040  3
     62     61     66     69     1  0.0000000  0.6527040  3
     62     61     66     68     1  0.0000000  0.6527040  3
     62     61     66     67     1  0.0000000  0.6527040  3
     62     61     70     73     1  0.0000000  0.6527040  3
     62     61     70     71     1  0.0000000  0.6527040  3
     62     61     70     72     1  0.0000000  0.6527040  3
     60     58     61     66     1  0.0000000  0.6527040  3
     60     58     61     70     1  0.0000000  0.6527040  3
     60     58     61     62     1  0.0000000  0.6527040  3
     59     58     61     66     1  0.0000000  0.6527040  3
     59     58     61     70     1  0.0000000  0.6527040  3
     59     58     61     62     1  0.0000000  0.6527040  3
     58     61     66     69     1  0.0000000  0.6527040  3
     58     61     66     68     1  0.0000000  0.6527040  3
     58     61     66     67     1  0.0000000  0.6527040  3
     58     61     70     73     1  0.0000000  0.6527040  3
     58     61     70     71     1  0.0000000  0.6527040  3
     58     61     70     72     1  0.0000000  0.6527040  3
     58     61     62     63     1  0.0000000  0.6527040  3
     58     61     62     64     1  0.0000000  0.6527040  3
     58     61     62     65     1  0.0000000  0.6527040  3
     57     55     58     61     1  0.0000000  0.6527040  3
     57     55     58     59     1  0.0000000  0.6527040  3
     57     55     58     60     1  0.0000000  0.6527040  3
     56     55     58     61     1  0.0000000  0.6527040  3
     56     55     58     59     1  0.0000000  0.6527040  3
     56     55     58     60     1  0.0000000  0.6527040  3
     54     55     58     59     1  0.0000000  0.6527040  3
     54     55     58     60     1  0.0000000  0.6527040  3
     53     54     55     57     1  0.0000000  0.0000000  1
     53     54     55     57     1  0.0000000  0.0000000  2
     53     54     55     57     1  0.0000000  1.6024720  3
     53     54     55     57     1  0.0000000  0.0000000  4
     53     54     55     57     1  0.0000000  0.0000000  5
     53     54     55     56     1  0.0000000  0.0000000  1
     53     54     55     56     1  0.0000000  0.0000000  2
     53     54     55     56     1  0.0000000  1.6024720  3
     53     54     55     56     1  0.0000000  0.0000000  4
     53     54     55     56     1  0.0000000  0.0000000  5
     51     49     47     76     1  0.0000000  0.6527040  3
     51     49     47     80     1  0.0000000  0.6527040  3
     51     49     52     53     1  0.0000000  0.0000000  1
     51     49     52     53     1  0.0000000  0.0000000  2
     51     49     52     53     1  0.0000000  1.6024720  3
     51     49     52     53     1  0.0000000  0.0000000  4
     51     49     52     53     1  0.0000000  0.0000000  5
     50     49     47     76     1  0.0000000  0.6527040  3
     50     49     47     80     1  0.0000000  0.6527040  3
     50     49     52     53     1  0.0000000  0.0000000  1
     50     49     52     53     1  0.0000000  0.0000000  2
     50     49     52     53     1  0.0000000  1.6024720  3
     50     49     52     53     1  0.0000000  0.0000000  4
     50     49     52     53     1  0.0000000  0.0000000  5
     49     47     76     77     1  0.0000000  0.0000000  2
     49     47     80     81     1  0.0000000  0.6527040  3
     48     47     76     78     1  0.0000000  0.0000000  2
     48     47     76     77     1  0.0000000  0.0000000  2
     48     47     49     52     1  0.0000000  1.0460000  1
     48     47     49     52     1  0.0000000  0.0000000  3
     48     47     49     51     1  0.0000000  0.6527040  3
     48     47     49     50     1  0.0000000  0.6527040  3
     48     47     80     81     1  0.0000000  0.6527040  3
     48     47     80     82     1  0.0000000  1.0460000  1
     48     47     80     82     1  0.0000000  0.0000000  3
     48     47     80    126     1  0.0000000  0.6510304  3
     47     80     82     83     1  0.0000000  1.0460000  1
     47     80     82     83     1  0.0000000  0.6694400  3
     47     80    126    127     1  0.0000000  0.0000000  2
    125    124    126    127     1  180.0000771  27.8236000  2
    123    121    124    126     1  0.0000000  4.8116000  1
    123    121    124    126     1  180.0000771  1.5899200  3
    123    121    124    125     1  0.0000000  0.0000000  2
    122    121    124    126     1  0.0000000  4.8116000  1
    122    121    124    126     1  180.0000771  1.5899200  3
    122    121    124    125     1  0.0000000  0.0000000  2
    121    124    126    127     1  180.0000771  27.8236000  2
    120    118    121    124     1  0.0000000  0.6510304  3
    120    118    121    122     1  0.0000000  0.6276000  3
    120    118    121    123     1  0.0000000  0.6276000  3
    119    118    121    124     1  0.0000000  0.6510304  3
    119    118    121    122     1  0.0000000  0.6276000  3
    119    118    121    123     1  0.0000000  0.6276000  3
    118    121    124    125     1  0.0000000  0.0000000  2
    117    115    118    121     1  0.0000000  0.6694400  3
    117    115    118    120     1  0.0000000  0.6276000  3
    117    115    118    119     1  0.0000000  0.6276000  3
    116    115    118    121     1  0.0000000  0.6694400  3
    116    115    118    120     1  0.0000000  0.6276000  3
    116    115    118    119     1  0.0000000  0.6276000  3
    115    118    121    122     1  0.0000000  0.6694400  3
    115    118    121    123     1  0.0000000  0.6694400  3
    114    112    115    118     1  0.0000000  0.6694400  3
    114    112    115    116     1  0.0000000  0.6276000  3
    114    112    115    117     1  0.0000000  0.6276000  3
    113    112    115    118     1  0.0000000  0.6694400  3
    113    112    115    116     1  0.0000000  0.6276000  3
    113    112    115    117     1  0.0000000  0.6276000  3
    112    115    118    120     1  0.0000000  0.6694400  3
    112    115    118    119     1  0.0000000  0.6694400  3
    111    109    112    115     1  0.0000000  0.6694400  3
    111    109    112    114     1  0.0000000  0.6276000  3
    111    109    112    113     1  0.0000000  0.6276000  3
    110    109    112    115     1  0.0000000  0.6694400  3
    110    109    112    114     1  0.0000000  0.6276000  3
    110    109    112    113     1  0.0000000  0.6276000  3
    109    112    115    116     1  0.0000000  0.6694400  3
    109    112    115    117     1  0.0000000  0.6694400  3
    108    106    109    112     1  0.0000000  0.6694400  3
    108    106    109    111     1  0.0000000  0.6276000  3
    108    106    109    110     1  0.0000000  0.6276000  3
    107    106    109    112     1  0.0000000  0.6694400  3
    107    106    109    111     1  0.0000000  0.6276000  3
    107    106    109    110     1  0.0000000  0.6276000  3
    106    109    112    114     1  0.0000000  0.6694400  3
    106    109    112    113     1  0.0000000  0.6694400  3
    105    103    106    109     1  0.0000000  0.6694400  3
    105    103    106    107     1  0.0000000  0.6276000  3
    105    103    106    108     1  0.0000000  0.6276000  3
    104    103    106    109     1  0.0000000  0.6694400  3
    104    103    106    107     1  0.0000000  0.6276000  3
    104    103    106    108     1  0.0000000  0.6276000  3
    103    106    109    111     1  0.0000000  0.6694400  3
    103    106    109    110     1  0.0000000  0.6694400  3
    102    100    103    106     1  0.0000000  0.6694400  3
    102    100    103    104     1  0.0000000  0.6276000  3
    102    100    103    105     1  0.0000000  0.6276000  3
    101    100    103    106     1  0.0000000  0.6694400  3
    101    100    103    104     1  0.0000000  0.6276000  3
    101    100    103    105     1  0.0000000  0.6276000  3
    100    103    106    107     1  0.0000000  0.6694400  3
    100    103    106    108     1  0.0000000  0.6694400  3
     99     97    100    103     1  0.0000000  0.6694400  3
     99     97    100    102     1  0.0000000  0.6276000  3
     99     97    100    101     1  0.0000000  0.6276000  3
     98     97    100    103     1  0.0000000  0.6694400  3
     98     97    100    102     1  0.0000000  0.6276000  3
     98     97    100    101     1  0.0000000  0.6276000  3
     97    100    103    104     1  0.0000000  0.6694400  3
     97    100    103    105     1  0.0000000  0.6694400  3
     96     94     97    100     1  0.0000000  0.6694400  3
     96     94     97     99     1  0.0000000  0.6276000  3
     96     94     97     98     1  0.0000000  0.6276000  3
     95     94     97    100     1  0.0000000  0.6694400  3
     95     94     97     99     1  0.0000000  0.6276000  3
     95     94     97     98     1  0.0000000  0.6276000  3
     94     97    100    102     1  0.0000000  0.6694400  3
     94     97    100    101     1  0.0000000  0.6694400  3
     93     91     94     97     1  0.0000000  0.6694400  3
     93     91     94     96     1  0.0000000  0.6276000  3
     93     91     94     95     1  0.0000000  0.6276000  3
     92     91     94     97     1  0.0000000  0.6694400  3
     92     91     94     96     1  0.0000000  0.6276000  3
     92     91     94     95     1  0.0000000  0.6276000  3
     91     94     97     99     1  0.0000000  0.6694400  3
     91     94     97     98     1  0.0000000  0.6694400  3
     90     88     91     94     1  0.0000000  0.6694400  3
     90     88     91     92     1  0.0000000  0.6276000  3
     90     88     91     93     1  0.0000000  0.6276000  3
     89     88     91     94     1  0.0000000  0.6694400  3
     89     88     91     92     1  0.0000000  0.6276000  3
     89     88     91     93     1  0.0000000  0.6276000  3
     88     91     94     96     1  0.0000000  0.6694400  3
     88     91     94     95     1  0.0000000  0.6694400  3
     87     84     88     91     1  0.0000000  0.6694400  3
     87     84     88     90     1  0.0000000  0.6276000  3
     87     84     88     89     1  0.0000000  0.6276000  3
     86     84     88     91     1  0.0000000  0.6694400  3
     86     84     88     90     1  0.0000000  0.6276000  3
     86     84     88     89     1  0.0000000  0.6276000  3
     85     84     88     91     1  0.0000000  0.6694400  3
     85     84     88     90     1  0.0000000  0.6276000  3
     85     84     88     89     1  0.0000000  0.6276000  3
     84     88     91     92     1  0.0000000  0.6694400  3
     84     88     91     93     1  0.0000000  0.6694400  3
     47     78     76     77     4  180.0000771  4.6024000  2
     80    124    126    127     4  180.0000771  4.6024000  2
    126    121    124    125     4  180.0000771  4.6024000  2
