; Exact Amber Lipid21 v1.0 topology converted by ParmEd
; Explicit [pairs] preserve Lipid21-specific 1-4 scaling.

[ moleculetype ]
; Name nrexcl
PUPC 3

[ atoms ]
; nr type resnr residue atom cgnr charge mass
1 L21_cD 1 PUPC C16X 1 -0.12544700 12.010000
2 L21_hL 1 PUPC H16X 2 0.02904700 1.008000
3 L21_hL 1 PUPC H16Y 3 0.02904700 1.008000
4 L21_hL 1 PUPC H16Z 4 0.02904700 1.008000
5 L21_cD 1 PUPC C15X 5 0.01397500 12.010000
6 L21_hL 1 PUPC H15X 6 0.00929200 1.008000
7 L21_hL 1 PUPC H15Y 7 0.00929200 1.008000
8 L21_cD 1 PUPC C14X 8 -0.02008600 12.010000
9 L21_hL 1 PUPC H14X 9 0.01592900 1.008000
10 L21_hL 1 PUPC H14Y 10 0.01592900 1.008000
11 L21_cD 1 PUPC C13X 11 -0.03309600 12.010000
12 L21_hL 1 PUPC H13X 12 0.01462100 1.008000
13 L21_hL 1 PUPC H13Y 13 0.01462100 1.008000
14 L21_cD 1 PUPC C12X 14 -0.02763300 12.010000
15 L21_hL 1 PUPC H12X 15 0.01136800 1.008000
16 L21_hL 1 PUPC H12Y 16 0.01136800 1.008000
17 L21_cD 1 PUPC C11X 17 -0.02520600 12.010000
18 L21_hL 1 PUPC H11X 18 0.01433400 1.008000
19 L21_hL 1 PUPC H11Y 19 0.01433400 1.008000
20 L21_cD 1 PUPC C10X 20 -0.02883100 12.010000
21 L21_hL 1 PUPC H10X 21 0.01469100 1.008000
22 L21_hL 1 PUPC H10Y 22 0.01469100 1.008000
23 L21_cD 1 PUPC C9X 23 -0.03047200 12.010000
24 L21_hL 1 PUPC H9X 24 0.01389700 1.008000
25 L21_hL 1 PUPC H9Y 25 0.01389700 1.008000
26 L21_cD 1 PUPC C8X 26 -0.01579300 12.010000
27 L21_hL 1 PUPC H8X 27 0.00906700 1.008000
28 L21_hL 1 PUPC H8Y 28 0.00906700 1.008000
29 L21_cD 1 PUPC C7X 29 -0.01963000 12.010000
30 L21_hL 1 PUPC H7X 30 0.01104100 1.008000
31 L21_hL 1 PUPC H7Y 31 0.01104100 1.008000
32 L21_cD 1 PUPC C6X 32 -0.02442700 12.010000
33 L21_hL 1 PUPC H6X 33 0.01333400 1.008000
34 L21_hL 1 PUPC H6Y 34 0.01333400 1.008000
35 L21_cD 1 PUPC C5X 35 -0.02938700 12.010000
36 L21_hL 1 PUPC H5X 36 0.01676300 1.008000
37 L21_hL 1 PUPC H5Y 37 0.01676300 1.008000
38 L21_cD 1 PUPC C4X 38 -0.03009900 12.010000
39 L21_hL 1 PUPC H4X 39 0.02087700 1.008000
40 L21_hL 1 PUPC H4Y 40 0.02087700 1.008000
41 L21_cD 1 PUPC C3X 41 -0.00488200 12.010000
42 L21_hL 1 PUPC H3X 42 0.01900700 1.008000
43 L21_hL 1 PUPC H3Y 43 0.01900700 1.008000
44 L21_cD 1 PUPC C2X 44 -0.14925900 12.010000
45 L21_hL 1 PUPC H2X 45 0.04734500 1.008000
46 L21_hL 1 PUPC H2Y 46 0.04734500 1.008000
47 L21_cC 1 PUPC C11 47 0.91040300 12.010000
48 L21_oC 1 PUPC O12 48 -0.67156600 16.000000
49 L21_oS 1 PUPC O11 49 -0.57548900 16.000000
50 L21_cA 1 PUPC C1 50 0.19693900 12.010000
51 L21_hE 1 PUPC HR 51 0.07046900 1.008000
52 L21_hE 1 PUPC HS 52 0.07046900 1.008000
53 L21_cA 1 PUPC C2 53 0.28124200 12.010000
54 L21_hE 1 PUPC HX 54 0.06325300 1.008000
55 L21_cA 1 PUPC C3 55 0.01745900 12.010000
56 L21_hE 1 PUPC HA 56 0.09559100 1.008000
57 L21_hE 1 PUPC HB 57 0.09559100 1.008000
58 L21_oT 1 PUPC O31 58 -0.50948000 16.000000
59 L21_pA 1 PUPC P31 59 1.33972100 30.970000
60 L21_oT 1 PUPC O32 60 -0.50817600 16.000000
61 L21_cA 1 PUPC C31 61 0.16680100 12.010000
62 L21_hE 1 PUPC H1A 62 0.07853400 1.008000
63 L21_hE 1 PUPC H1B 63 0.07853400 1.008000
64 L21_cA 1 PUPC C32 64 -0.17082400 12.010000
65 L21_hX 1 PUPC H2A 65 0.13641500 1.008000
66 L21_hX 1 PUPC H2B 66 0.13641500 1.008000
67 L21_nA 1 PUPC N31 67 0.24526200 14.010000
68 L21_cA 1 PUPC C33 68 -0.33897300 12.010000
69 L21_hX 1 PUPC H3A 69 0.17223000 1.008000
70 L21_hX 1 PUPC H3B 70 0.17223000 1.008000
71 L21_hX 1 PUPC H3C 71 0.17223000 1.008000
72 L21_cA 1 PUPC C34 72 -0.33897300 12.010000
73 L21_hX 1 PUPC H4A 73 0.17223000 1.008000
74 L21_hX 1 PUPC H4B 74 0.17223000 1.008000
75 L21_hX 1 PUPC H4C 75 0.17223000 1.008000
76 L21_cA 1 PUPC C35 76 -0.33897300 12.010000
77 L21_hX 1 PUPC H5A 77 0.17223000 1.008000
78 L21_hX 1 PUPC H5B 78 0.17223000 1.008000
79 L21_hX 1 PUPC H5C 79 0.17223000 1.008000
80 L21_oP 1 PUPC O33 80 -0.87581200 16.000000
81 L21_oP 1 PUPC O34 81 -0.87581200 16.000000
82 L21_oS 1 PUPC O21 82 -0.55294800 16.000000
83 L21_cC 1 PUPC C21 83 0.89761300 12.010000
84 L21_oC 1 PUPC O22 84 -0.67375500 16.000000
85 L21_cB 1 PUPC C16Y 85 -0.23389700 12.010000
86 L21_hB 1 PUPC H16U 86 0.13381200 1.008000
87 L21_cD 1 PUPC C15Y 87 0.06921500 12.010000
88 L21_hL 1 PUPC H15U 88 0.05834100 1.008000
89 L21_hL 1 PUPC H15V 89 0.05834100 1.008000
90 L21_cB 1 PUPC C14Y 90 -0.24041900 12.010000
91 L21_hB 1 PUPC H14U 91 0.13833700 1.008000
92 L21_cB 1 PUPC C13Y 92 -0.21866800 12.010000
93 L21_hB 1 PUPC H13U 93 0.13157500 1.008000
94 L21_cD 1 PUPC C12Y 94 0.08524500 12.010000
95 L21_hL 1 PUPC H12U 95 0.05342200 1.008000
96 L21_hL 1 PUPC H12V 96 0.05342200 1.008000
97 L21_cB 1 PUPC C11Y 97 -0.24120500 12.010000
98 L21_hB 1 PUPC H11U 98 0.13630800 1.008000
99 L21_cB 1 PUPC C10Y 99 -0.22143300 12.010000
100 L21_hB 1 PUPC H10U 100 0.13362800 1.008000
101 L21_cD 1 PUPC C9Y 101 0.08904300 12.010000
102 L21_hL 1 PUPC H9U 102 0.05425500 1.008000
103 L21_hL 1 PUPC H9V 103 0.05425500 1.008000
104 L21_cB 1 PUPC C8Y 104 -0.22625400 12.010000
105 L21_hB 1 PUPC H8U 105 0.12814700 1.008000
106 L21_cB 1 PUPC C7Y 106 -0.22089500 12.010000
107 L21_hB 1 PUPC H7U 107 0.13986300 1.008000
108 L21_cD 1 PUPC C6Y 108 0.06033700 12.010000
109 L21_hL 1 PUPC H6U 109 0.06351500 1.008000
110 L21_hL 1 PUPC H6V 110 0.06351500 1.008000
111 L21_cB 1 PUPC C5Y 111 -0.21484500 12.010000
112 L21_hB 1 PUPC H5U 112 0.13250400 1.008000
113 L21_cB 1 PUPC C4Y 113 -0.28705900 12.010000
114 L21_hB 1 PUPC H4U 114 0.15403800 1.008000
115 L21_cD 1 PUPC C3Y 115 0.12099900 12.010000
116 L21_hL 1 PUPC H3U 116 0.02609700 1.008000
117 L21_hL 1 PUPC H3V 117 0.02609700 1.008000
118 L21_cD 1 PUPC C2Y 118 -0.14293700 12.010000
119 L21_hL 1 PUPC H2U 119 0.03754400 1.008000
120 L21_hL 1 PUPC H2V 120 0.03754400 1.008000
121 L21_cB 1 PUPC C17Y 121 -0.21649900 12.010000
122 L21_hB 1 PUPC H17U 122 0.13212100 1.008000
123 L21_cD 1 PUPC C18Y 123 0.09271800 12.010000
124 L21_hL 1 PUPC H18U 124 0.05322700 1.008000
125 L21_hL 1 PUPC H18V 125 0.05322700 1.008000
126 L21_cB 1 PUPC C19Y 126 -0.24683300 12.010000
127 L21_hB 1 PUPC H19U 127 0.13632300 1.008000
128 L21_cB 1 PUPC C20Y 128 -0.24021600 12.010000
129 L21_hB 1 PUPC H20U 129 0.13304800 1.008000
130 L21_cD 1 PUPC C21Y 130 0.12202200 12.010000
131 L21_hL 1 PUPC H21U 131 0.01004200 1.008000
132 L21_hL 1 PUPC H21V 132 0.01004200 1.008000
133 L21_cD 1 PUPC C22Y 133 -0.10891300 12.010000
134 L21_hL 1 PUPC H22U 134 0.02596800 1.008000
135 L21_hL 1 PUPC H22V 135 0.02596800 1.008000
136 L21_hL 1 PUPC H22W 136 0.02596800 1.008000

[ bonds ]
;    ai     aj funct         c0         c1         c2         c3
     44     47     1   0.15080 274721.440000
     41     44     1   0.15350 253634.080000
     38     41     1   0.15350 253634.080000
     35     38     1   0.15350 253634.080000
     32     35     1   0.15350 253634.080000
     29     32     1   0.15350 253634.080000
     26     29     1   0.15350 253634.080000
     23     26     1   0.15350 253634.080000
     20     23     1   0.15350 253634.080000
     17     20     1   0.15350 253634.080000
     14     17     1   0.15350 253634.080000
     11     14     1   0.15350 253634.080000
      8     11     1   0.15350 253634.080000
      5      8     1   0.15350 253634.080000
      1      5     1   0.15350 253634.080000
     83     84     1   0.12140 542246.400000
     83    118     1   0.15080 274721.440000
     82     83     1   0.13430 344175.840000
     67     68     1   0.14990 245684.480000
     67     72     1   0.14990 245684.480000
     67     76     1   0.14990 245684.480000
     64     67     1   0.14990 245684.480000
     61     64     1   0.15350 253634.080000
     60     61     1   0.14390 252295.200000
     59     60     1   0.16100 192464.000000
     59     80     1   0.14800 439320.000000
     59     81     1   0.14800 439320.000000
     58     59     1   0.16100 192464.000000
     55     58     1   0.14390 252295.200000
     53     55     1   0.15350 253634.080000
     53     82     1   0.14390 252295.200000
     50     53     1   0.15350 253634.080000
     49     50     1   0.14390 252295.200000
     47     48     1   0.12140 542246.400000
     47     49     1   0.13430 344175.840000
    130    133     1   0.15350 253634.080000
    128    130     1   0.15080 274721.440000
    126    128     1   0.13240 493460.960000
    123    126     1   0.15080 274721.440000
    121    123     1   0.15080 274721.440000
    115    118     1   0.15350 253634.080000
    113    115     1   0.15080 274721.440000
    111    113     1   0.13240 493460.960000
    108    111     1   0.15080 274721.440000
    106    108     1   0.15080 274721.440000
    104    106     1   0.13240 493460.960000
    101    104     1   0.15080 274721.440000
     99    101     1   0.15080 274721.440000
     97     99     1   0.13240 493460.960000
     94     97     1   0.15080 274721.440000
     92     94     1   0.15080 274721.440000
     90     92     1   0.13240 493460.960000
     87     90     1   0.15080 274721.440000
     85     87     1   0.15080 274721.440000
     85    121     1   0.13240 493460.960000
     44     45     1   0.10920 282252.640000
     44     46     1   0.10920 282252.640000
     41     42     1   0.10920 282252.640000
     41     43     1   0.10920 282252.640000
     38     39     1   0.10920 282252.640000
     38     40     1   0.10920 282252.640000
     35     36     1   0.10920 282252.640000
     35     37     1   0.10920 282252.640000
     32     33     1   0.10920 282252.640000
     32     34     1   0.10920 282252.640000
     29     30     1   0.10920 282252.640000
     29     31     1   0.10920 282252.640000
     26     27     1   0.10920 282252.640000
     26     28     1   0.10920 282252.640000
     23     24     1   0.10920 282252.640000
     23     25     1   0.10920 282252.640000
     20     21     1   0.10920 282252.640000
     20     22     1   0.10920 282252.640000
     17     18     1   0.10920 282252.640000
     17     19     1   0.10920 282252.640000
     14     15     1   0.10920 282252.640000
     14     16     1   0.10920 282252.640000
     11     12     1   0.10920 282252.640000
     11     13     1   0.10920 282252.640000
      8      9     1   0.10920 282252.640000
      8     10     1   0.10920 282252.640000
      5      6     1   0.10920 282252.640000
      5      7     1   0.10920 282252.640000
      1      2     1   0.10920 282252.640000
      1      3     1   0.10920 282252.640000
      1      4     1   0.10920 282252.640000
     76     77     1   0.10910 283424.160000
     76     78     1   0.10910 283424.160000
     76     79     1   0.10910 283424.160000
     72     73     1   0.10910 283424.160000
     72     74     1   0.10910 283424.160000
     72     75     1   0.10910 283424.160000
     68     69     1   0.10910 283424.160000
     68     70     1   0.10910 283424.160000
     68     71     1   0.10910 283424.160000
     64     65     1   0.10910 283424.160000
     64     66     1   0.10910 283424.160000
     61     62     1   0.10930 281081.120000
     61     63     1   0.10930 281081.120000
     55     56     1   0.10930 281081.120000
     55     57     1   0.10930 281081.120000
     53     54     1   0.10930 281081.120000
     50     51     1   0.10930 281081.120000
     50     52     1   0.10930 281081.120000
    133    134     1   0.10920 282252.640000
    133    135     1   0.10920 282252.640000
    133    136     1   0.10920 282252.640000
    130    131     1   0.10920 282252.640000
    130    132     1   0.10920 282252.640000
    128    129     1   0.10870 288110.240000
    126    127     1   0.10870 288110.240000
    123    124     1   0.10920 282252.640000
    123    125     1   0.10920 282252.640000
    121    122     1   0.10870 288110.240000
    118    119     1   0.10920 282252.640000
    118    120     1   0.10920 282252.640000
    115    116     1   0.10920 282252.640000
    115    117     1   0.10920 282252.640000
    113    114     1   0.10870 288110.240000
    111    112     1   0.10870 288110.240000
    108    109     1   0.10920 282252.640000
    108    110     1   0.10920 282252.640000
    106    107     1   0.10870 288110.240000
    104    105     1   0.10870 288110.240000
    101    102     1   0.10920 282252.640000
    101    103     1   0.10920 282252.640000
     99    100     1   0.10870 288110.240000
     97     98     1   0.10870 288110.240000
     94     95     1   0.10920 282252.640000
     94     96     1   0.10920 282252.640000
     92     93     1   0.10870 288110.240000
     90     91     1   0.10870 288110.240000
     87     88     1   0.10920 282252.640000
     87     89     1   0.10920 282252.640000
     85     86     1   0.10870 288110.240000


[ pairs ]
;    ai     aj funct         c0         c1         c2         c3
     44     50     1
     41     48     1
     41     49     1
     38     47     1
     35     44     1
     32     41     1
     29     38     1
     26     35     1
     23     32     1
     20     29     1
     17     26     1
     14     23     1
     11     20     1
      8     17     1
      5     14     1
      1     11     1
     84    115     1
     83    113     1
     82    115     1
     61     80     1
     61     81     1
     61     68     1
     61     72     1
     61     76     1
     60     67     1
     59     64     1
     58     82     1
     58     61     1
     55     83     1
     55     60     1
     55     80     1
     55     81     1
     53     59     1
     53     84     1
     53    118     1
     50     58     1
     50     83     1
     49     55     1
     49     82     1
     48     50     1
     47     53     1
    126    133     1
    123    130     1
    121    128     1
    111    118     1
    108    115     1
    106    113     1
    104    111     1
    101    108     1
     99    106     1
     97    104     1
     94    101     1
     92     99     1
     90    121     1
     90     97     1
     87    123     1
     87     94     1
     85     92     1
     85    126     1
     46     48     1
     46     49     1
     45     48     1
     45     49     1
     43     45     1
     43     46     1
     43     47     1
     42     45     1
     42     46     1
     42     47     1
     40     42     1
     40     43     1
     40     44     1
     39     42     1
     39     43     1
     39     44     1
     38     45     1
     38     46     1
     37     39     1
     37     40     1
     37     41     1
     36     39     1
     36     40     1
     36     41     1
     35     42     1
     35     43     1
     34     36     1
     34     37     1
     34     38     1
     33     36     1
     33     37     1
     33     38     1
     32     39     1
     32     40     1
     31     33     1
     31     34     1
     31     35     1
     30     33     1
     30     34     1
     30     35     1
     29     36     1
     29     37     1
     28     30     1
     28     31     1
     28     32     1
     27     30     1
     27     31     1
     27     32     1
     26     33     1
     26     34     1
     25     27     1
     25     28     1
     25     29     1
     24     27     1
     24     28     1
     24     29     1
     23     30     1
     23     31     1
     22     24     1
     22     25     1
     22     26     1
     21     24     1
     21     25     1
     21     26     1
     20     27     1
     20     28     1
     19     21     1
     19     22     1
     19     23     1
     18     21     1
     18     22     1
     18     23     1
     17     24     1
     17     25     1
     16     18     1
     16     19     1
     16     20     1
     15     18     1
     15     19     1
     15     20     1
     14     21     1
     14     22     1
     13     15     1
     13     16     1
     13     17     1
     12     15     1
     12     16     1
     12     17     1
     11     18     1
     11     19     1
     10     12     1
     10     13     1
     10     14     1
      9     12     1
      9     13     1
      9     14     1
      8     15     1
      8     16     1
      7      9     1
      7     10     1
      7     11     1
      6      9     1
      6     10     1
      6     11     1
      5     12     1
      5     13     1
      4      6     1
      4      7     1
      4      8     1
      3      6     1
      3      7     1
      3      8     1
      2      6     1
      2      7     1
      2      8     1
      1      9     1
      1     10     1
     84    119     1
     84    120     1
     83    116     1
     83    117     1
     82    119     1
     82    120     1
     75     76     1
     74     76     1
     73     76     1
     72     77     1
     72     78     1
     72     79     1
     71     72     1
     71     76     1
     70     72     1
     70     76     1
     69     72     1
     69     76     1
     68     73     1
     68     74     1
     68     75     1
     68     77     1
     68     78     1
     68     79     1
     66     68     1
     66     72     1
     66     76     1
     65     68     1
     65     72     1
     65     76     1
     64     69     1
     64     70     1
     64     71     1
     64     73     1
     64     74     1
     64     75     1
     64     77     1
     64     78     1
     64     79     1
     63     65     1
     63     66     1
     63     67     1
     62     65     1
     62     66     1
     62     67     1
     60     65     1
     60     66     1
     59     62     1
     59     63     1
     57     82     1
     57     59     1
     56     82     1
     56     59     1
     54     56     1
     54     57     1
     54     58     1
     54     83     1
     52     54     1
     52     55     1
     52     82     1
     51     54     1
     51     55     1
     51     82     1
     50     56     1
     50     57     1
     49     54     1
     47     51     1
     47     52     1
    132    134     1
    132    135     1
    132    136     1
    131    134     1
    131    135     1
    131    136     1
    129    131     1
    129    132     1
    129    133     1
    128    134     1
    128    135     1
    128    136     1
    127    129     1
    127    130     1
    126    131     1
    126    132     1
    125    127     1
    125    128     1
    124    127     1
    124    128     1
    123    129     1
    122    124     1
    122    125     1
    122    126     1
    121    127     1
    117    119     1
    117    120     1
    116    119     1
    116    120     1
    114    116     1
    114    117     1
    114    118     1
    113    119     1
    113    120     1
    112    114     1
    112    115     1
    111    116     1
    111    117     1
    110    112     1
    110    113     1
    109    112     1
    109    113     1
    108    114     1
    107    109     1
    107    110     1
    107    111     1
    106    112     1
    105    107     1
    105    108     1
    104    109     1
    104    110     1
    103    105     1
    103    106     1
    102    105     1
    102    106     1
    101    107     1
    100    102     1
    100    103     1
    100    104     1
     99    105     1
     98    100     1
     98    101     1
     97    102     1
     97    103     1
     96     98     1
     96     99     1
     95     98     1
     95     99     1
     94    100     1
     93     95     1
     93     96     1
     93     97     1
     92     98     1
     91     93     1
     91     94     1
     90     95     1
     90     96     1
     89    121     1
     89     91     1
     89     92     1
     88    121     1
     88     91     1
     88     92     1
     87    122     1
     87     93     1
     86     88     1
     86     89     1
     86     90     1
     86    122     1
     86    123     1
     85     91     1
     85    124     1
     85    125     1


[ angles ]
;    ai     aj     ak funct         c0         c1         c2         c3
     44     47     48     1   123.1100526 569.275040
     44     47     49     1   111.9600481 579.567680
     41     44     47     1   110.5300474 533.794720
     38     41     44     1   112.0500483 394.969600
     35     38     41     1   112.0500483 394.969600
     32     35     38     1   112.0500483 394.969600
     29     32     35     1   112.0500483 394.969600
     26     29     32     1   112.0500483 394.969600
     23     26     29     1   112.0500483 394.969600
     20     23     26     1   112.0500483 394.969600
     17     20     23     1   112.0500483 394.969600
     14     17     20     1   112.0500483 394.969600
     11     14     17     1   112.0500483 394.969600
      8     11     14     1   112.0500483 394.969600
      5      8     11     1   112.0500483 394.969600
      1      5      8     1   112.0500483 394.969600
     84     83    118     1   123.1100526 569.275040
     83    118    115     1   110.5300474 533.794720
     82     83     84     1   123.3300529 635.382240
     82     83    118     1   111.9600481 579.567680
     80     59     81     1   119.9000514 1171.520000
     72     67     76     1   110.6400473 525.845120
     68     67     72     1   110.6400473 525.845120
     68     67     76     1   110.6400473 525.845120
     64     67     68     1   110.6400473 525.845120
     64     67     72     1   110.6400473 525.845120
     64     67     76     1   110.6400473 525.845120
     61     64     67     1   114.3200492 539.317600
     60     59     80     1   108.2300464 836.800000
     60     59     81     1   108.2300464 836.800000
     60     61     64     1   108.4200467 567.183040
     59     60     61     1   120.5000516 836.800000
     58     59     60     1   102.6000440 753.120000
     58     59     80     1   108.2300464 836.800000
     58     59     81     1   108.2300464 836.800000
     55     53     82     1   108.4200467 567.183040
     55     58     59     1   120.5000516 836.800000
     53     55     58     1   108.4200467 567.183040
     53     82     83     1   115.1400492 532.455840
     50     53     55     1   110.6300475 528.941280
     50     53     82     1   108.4200467 567.183040
     49     50     53     1   108.4200467 567.183040
     48     47     49     1   123.3300529 635.382240
     47     49     50     1   115.1400492 532.455840
    128    130    133     1   111.4400476 531.619040
    126    128    130     1   123.4200531 538.313440
    123    126    128     1   123.4200531 538.313440
    121    123    126     1   112.0800478 534.966240
    113    115    118     1   111.4400476 531.619040
    111    113    115     1   123.4200531 538.313440
    108    111    113     1   123.4200531 538.313440
    106    108    111     1   112.0800478 534.966240
    104    106    108     1   123.4200531 538.313440
    101    104    106     1   123.4200531 538.313440
     99    101    104     1   112.0800478 534.966240
     97     99    101     1   123.4200531 538.313440
     94     97     99     1   123.4200531 538.313440
     92     94     97     1   112.0800478 534.966240
     90     92     94     1   123.4200531 538.313440
     87     85    121     1   123.4200531 538.313440
     87     90     92     1   123.4200531 538.313440
     85     87     90     1   112.0800478 534.966240
     85    121    123     1   123.4200531 538.313440
     46     44     47     1   109.6800468 394.969600
     45     44     46     1   108.3500467 329.950240
     45     44     47     1   109.6800468 394.969600
     43     41     44     1   110.0500475 388.024160
     42     41     43     1   108.3500467 329.950240
     42     41     44     1   110.0500475 388.024160
     41     44     45     1   110.0500475 388.024160
     41     44     46     1   110.0500475 388.024160
     40     38     41     1   110.0500475 388.024160
     39     38     40     1   108.3500467 329.950240
     39     38     41     1   110.0500475 388.024160
     38     41     42     1   110.0500475 388.024160
     38     41     43     1   110.0500475 388.024160
     37     35     38     1   110.0500475 388.024160
     36     35     37     1   108.3500467 329.950240
     36     35     38     1   110.0500475 388.024160
     35     38     39     1   110.0500475 388.024160
     35     38     40     1   110.0500475 388.024160
     34     32     35     1   110.0500475 388.024160
     33     32     34     1   108.3500467 329.950240
     33     32     35     1   110.0500475 388.024160
     32     35     36     1   110.0500475 388.024160
     32     35     37     1   110.0500475 388.024160
     31     29     32     1   110.0500475 388.024160
     30     29     31     1   108.3500467 329.950240
     30     29     32     1   110.0500475 388.024160
     29     32     33     1   110.0500475 388.024160
     29     32     34     1   110.0500475 388.024160
     28     26     29     1   110.0500475 388.024160
     27     26     28     1   108.3500467 329.950240
     27     26     29     1   110.0500475 388.024160
     26     29     30     1   110.0500475 388.024160
     26     29     31     1   110.0500475 388.024160
     25     23     26     1   110.0500475 388.024160
     24     23     25     1   108.3500467 329.950240
     24     23     26     1   110.0500475 388.024160
     23     26     27     1   110.0500475 388.024160
     23     26     28     1   110.0500475 388.024160
     22     20     23     1   110.0500475 388.024160
     21     20     22     1   108.3500467 329.950240
     21     20     23     1   110.0500475 388.024160
     20     23     24     1   110.0500475 388.024160
     20     23     25     1   110.0500475 388.024160
     19     17     20     1   110.0500475 388.024160
     18     17     19     1   108.3500467 329.950240
     18     17     20     1   110.0500475 388.024160
     17     20     21     1   110.0500475 388.024160
     17     20     22     1   110.0500475 388.024160
     16     14     17     1   110.0500475 388.024160
     15     14     16     1   108.3500467 329.950240
     15     14     17     1   110.0500475 388.024160
     14     17     18     1   110.0500475 388.024160
     14     17     19     1   110.0500475 388.024160
     13     11     14     1   110.0500475 388.024160
     12     11     13     1   108.3500467 329.950240
     12     11     14     1   110.0500475 388.024160
     11     14     15     1   110.0500475 388.024160
     11     14     16     1   110.0500475 388.024160
     10      8     11     1   110.0500475 388.024160
      9      8     10     1   108.3500467 329.950240
      9      8     11     1   110.0500475 388.024160
      8     11     12     1   110.0500475 388.024160
      8     11     13     1   110.0500475 388.024160
      7      5      8     1   110.0500475 388.024160
      6      5      7     1   108.3500467 329.950240
      6      5      8     1   110.0500475 388.024160
      5      8      9     1   110.0500475 388.024160
      5      8     10     1   110.0500475 388.024160
      4      1      5     1   110.0500475 388.024160
      3      1      4     1   108.3500467 329.950240
      3      1      5     1   110.0500475 388.024160
      2      1      3     1   108.3500467 329.950240
      2      1      4     1   108.3500467 329.950240
      2      1      5     1   110.0500475 388.024160
      1      5      6     1   110.0500475 388.024160
      1      5      7     1   110.0500475 388.024160
     83    118    119     1   109.6800468 394.969600
     83    118    120     1   109.6800468 394.969600
     78     76     79     1   110.7400473 326.686720
     77     76     78     1   110.7400473 326.686720
     77     76     79     1   110.7400473 326.686720
     74     72     75     1   110.7400473 326.686720
     73     72     74     1   110.7400473 326.686720
     73     72     75     1   110.7400473 326.686720
     70     68     71     1   110.7400473 326.686720
     69     68     70     1   110.7400473 326.686720
     69     68     71     1   110.7400473 326.686720
     67     68     69     1   107.9100461 410.199360
     67     68     70     1   107.9100461 410.199360
     67     68     71     1   107.9100461 410.199360
     67     72     73     1   107.9100461 410.199360
     67     72     74     1   107.9100461 410.199360
     67     72     75     1   107.9100461 410.199360
     67     76     77     1   107.9100461 410.199360
     67     76     78     1   107.9100461 410.199360
     67     76     79     1   107.9100461 410.199360
     66     64     67     1   107.9100461 410.199360
     65     64     66     1   110.7400473 326.686720
     65     64     67     1   107.9100461 410.199360
     63     61     64     1   110.0700471 387.940480
     62     61     63     1   109.5500472 327.858240
     62     61     64     1   110.0700471 387.940480
     61     64     65     1   111.7400478 385.095360
     61     64     66     1   111.7400478 385.095360
     60     61     62     1   108.8200469 425.429120
     60     61     63     1   108.8200469 425.429120
     57     55     58     1   108.8200469 425.429120
     56     55     57     1   109.5500472 327.858240
     56     55     58     1   108.8200469 425.429120
     54     53     55     1   110.0700471 387.940480
     54     53     82     1   108.8200469 425.429120
     53     55     56     1   110.0700471 387.940480
     53     55     57     1   110.0700471 387.940480
     52     50     53     1   110.0700471 387.940480
     51     50     52     1   109.5500472 327.858240
     51     50     53     1   110.0700471 387.940480
     50     53     54     1   110.0700471 387.940480
     49     50     51     1   108.8200469 425.429120
     49     50     52     1   108.8200469 425.429120
    135    133    136     1   108.3500467 329.950240
    134    133    135     1   108.3500467 329.950240
    134    133    136     1   108.3500467 329.950240
    132    130    133     1   110.0500475 388.024160
    131    130    132     1   108.3500467 329.950240
    131    130    133     1   110.0500475 388.024160
    130    133    134     1   110.0500475 388.024160
    130    133    135     1   110.0500475 388.024160
    130    133    136     1   110.0500475 388.024160
    129    128    130     1   117.3000503 382.082880
    128    130    131     1   110.4900475 393.547040
    128    130    132     1   110.4900475 393.547040
    127    126    128     1   120.9400517 418.734720
    126    128    129     1   120.9400517 418.734720
    125    123    126     1   110.4900475 393.547040
    124    123    125     1   108.3500467 329.950240
    124    123    126     1   110.4900475 393.547040
    123    126    127     1   117.3000503 382.082880
    122    121    123     1   117.3000503 382.082880
    121    123    124     1   110.4900475 393.547040
    121    123    125     1   110.4900475 393.547040
    119    118    120     1   108.3500467 329.950240
    117    115    118     1   110.0500475 388.024160
    116    115    117     1   108.3500467 329.950240
    116    115    118     1   110.0500475 388.024160
    115    118    119     1   110.0500475 388.024160
    115    118    120     1   110.0500475 388.024160
    114    113    115     1   117.3000503 382.082880
    113    115    116     1   110.4900475 393.547040
    113    115    117     1   110.4900475 393.547040
    112    111    113     1   120.9400517 418.734720
    111    113    114     1   120.9400517 418.734720
    110    108    111     1   110.4900475 393.547040
    109    108    110     1   108.3500467 329.950240
    109    108    111     1   110.4900475 393.547040
    108    111    112     1   117.3000503 382.082880
    107    106    108     1   117.3000503 382.082880
    106    108    109     1   110.4900475 393.547040
    106    108    110     1   110.4900475 393.547040
    105    104    106     1   120.9400517 418.734720
    104    106    107     1   120.9400517 418.734720
    103    101    104     1   110.4900475 393.547040
    102    101    103     1   108.3500467 329.950240
    102    101    104     1   110.4900475 393.547040
    101    104    105     1   117.3000503 382.082880
    100     99    101     1   117.3000503 382.082880
     99    101    102     1   110.4900475 393.547040
     99    101    103     1   110.4900475 393.547040
     98     97     99     1   120.9400517 418.734720
     97     99    100     1   120.9400517 418.734720
     96     94     97     1   110.4900475 393.547040
     95     94     96     1   108.3500467 329.950240
     95     94     97     1   110.4900475 393.547040
     94     97     98     1   117.3000503 382.082880
     93     92     94     1   117.3000503 382.082880
     92     94     95     1   110.4900475 393.547040
     92     94     96     1   110.4900475 393.547040
     91     90     92     1   120.9400517 418.734720
     90     92     93     1   120.9400517 418.734720
     89     87     90     1   110.4900475 393.547040
     88     87     89     1   108.3500467 329.950240
     88     87     90     1   110.4900475 393.547040
     87     90     91     1   117.3000503 382.082880
     86     85     87     1   117.3000503 382.082880
     86     85    121     1   120.9400517 418.734720
     85     87     88     1   110.4900475 393.547040
     85     87     89     1   110.4900475 393.547040
     85    121    122     1   120.9400517 418.734720


[ dihedrals ]
;    ai     aj     ak     al funct         c0         c1         c2         c3         c4         c5
     44     47     49     50     1  180.0000771  11.2968000  2
     41     44     47     48     1  180.0000771  0.0000000  2
     41     44     47     49     1  180.0000771  0.0000000  2
     38     41     44     47     1  0.0000000  0.6527040  3
     35     38     41     44     1  0.0000000  0.4184000  1
     35     38     41     44     1  0.0000000  0.4184000  2
     35     38     41     44     1  0.0000000  1.2552000  3
     35     38     41     44     1  0.0000000  0.4184000  4
     35     38     41     44     1  0.0000000  0.4184000  5
     32     35     38     41     1  0.0000000  0.4184000  1
     32     35     38     41     1  0.0000000  0.4184000  2
     32     35     38     41     1  0.0000000  1.2552000  3
     32     35     38     41     1  0.0000000  0.4184000  4
     32     35     38     41     1  0.0000000  0.4184000  5
     29     32     35     38     1  0.0000000  0.4184000  1
     29     32     35     38     1  0.0000000  0.4184000  2
     29     32     35     38     1  0.0000000  1.2552000  3
     29     32     35     38     1  0.0000000  0.4184000  4
     29     32     35     38     1  0.0000000  0.4184000  5
     26     29     32     35     1  0.0000000  0.4184000  1
     26     29     32     35     1  0.0000000  0.4184000  2
     26     29     32     35     1  0.0000000  1.2552000  3
     26     29     32     35     1  0.0000000  0.4184000  4
     26     29     32     35     1  0.0000000  0.4184000  5
     23     26     29     32     1  0.0000000  0.4184000  1
     23     26     29     32     1  0.0000000  0.4184000  2
     23     26     29     32     1  0.0000000  1.2552000  3
     23     26     29     32     1  0.0000000  0.4184000  4
     23     26     29     32     1  0.0000000  0.4184000  5
     20     23     26     29     1  0.0000000  0.4184000  1
     20     23     26     29     1  0.0000000  0.4184000  2
     20     23     26     29     1  0.0000000  1.2552000  3
     20     23     26     29     1  0.0000000  0.4184000  4
     20     23     26     29     1  0.0000000  0.4184000  5
     17     20     23     26     1  0.0000000  0.4184000  1
     17     20     23     26     1  0.0000000  0.4184000  2
     17     20     23     26     1  0.0000000  1.2552000  3
     17     20     23     26     1  0.0000000  0.4184000  4
     17     20     23     26     1  0.0000000  0.4184000  5
     14     17     20     23     1  0.0000000  0.4184000  1
     14     17     20     23     1  0.0000000  0.4184000  2
     14     17     20     23     1  0.0000000  1.2552000  3
     14     17     20     23     1  0.0000000  0.4184000  4
     14     17     20     23     1  0.0000000  0.4184000  5
     11     14     17     20     1  0.0000000  0.4184000  1
     11     14     17     20     1  0.0000000  0.4184000  2
     11     14     17     20     1  0.0000000  1.2552000  3
     11     14     17     20     1  0.0000000  0.4184000  4
     11     14     17     20     1  0.0000000  0.4184000  5
      8     11     14     17     1  0.0000000  0.4184000  1
      8     11     14     17     1  0.0000000  0.4184000  2
      8     11     14     17     1  0.0000000  1.2552000  3
      8     11     14     17     1  0.0000000  0.4184000  4
      8     11     14     17     1  0.0000000  0.4184000  5
      5      8     11     14     1  0.0000000  0.4184000  1
      5      8     11     14     1  0.0000000  0.4184000  2
      5      8     11     14     1  0.0000000  1.2552000  3
      5      8     11     14     1  0.0000000  0.4184000  4
      5      8     11     14     1  0.0000000  0.4184000  5
      1      5      8     11     1  0.0000000  0.4184000  1
      1      5      8     11     1  0.0000000  0.4184000  2
      1      5      8     11     1  0.0000000  1.2552000  3
      1      5      8     11     1  0.0000000  0.4184000  4
      1      5      8     11     1  0.0000000  0.4184000  5
     84     83    118    115     1  180.0000771  0.0000000  2
     83    118    115    113     1  0.0000000  0.6510304  3
     82     83    118    115     1  180.0000771  0.0000000  2
     61     60     59     80     1  0.0000000  0.0000000  1
     61     60     59     80     1  0.0000000  0.8368000  2
     61     60     59     80     1  0.0000000  0.0000000  3
     61     60     59     80     1  0.0000000  0.0000000  4
     61     60     59     80     1  0.0000000  0.0000000  5
     61     60     59     81     1  0.0000000  0.0000000  1
     61     60     59     81     1  0.0000000  0.8368000  2
     61     60     59     81     1  0.0000000  0.0000000  3
     61     60     59     81     1  0.0000000  0.0000000  4
     61     60     59     81     1  0.0000000  0.0000000  5
     61     64     67     68     1  0.0000000  0.6527040  3
     61     64     67     72     1  0.0000000  0.6527040  3
     61     64     67     76     1  0.0000000  0.6527040  3
     60     61     64     67     1  0.0000000  4.1840000  3
     59     60     61     64     1  180.0000771  -3.3472000  2
     59     60     61     64     1  0.0000000  0.0000000  3
     58     55     53     82     1  0.0000000  0.0000000  1
     58     55     53     82     1  0.0000000  0.0000000  2
     58     55     53     82     1  0.0000000  0.0000000  3
     58     55     53     82     1  0.0000000  0.0000000  4
     58     55     53     82     1  0.0000000  0.0000000  5
     58     59     60     61     1  0.0000000  9.6232000  2
     58     59     60     61     1  0.0000000  2.5104000  3
     55     53     82     83     1  0.0000000  -0.4184000  1
     55     53     82     83     1  240.0001029  -1.2552000  2
     55     53     82     83     1  300.0001286  -0.8368000  3
     55     58     59     60     1  0.0000000  9.6232000  2
     55     58     59     60     1  0.0000000  2.5104000  3
     55     58     59     80     1  0.0000000  0.0000000  1
     55     58     59     80     1  0.0000000  0.8368000  2
     55     58     59     80     1  0.0000000  0.0000000  3
     55     58     59     80     1  0.0000000  0.0000000  4
     55     58     59     80     1  0.0000000  0.0000000  5
     55     58     59     81     1  0.0000000  0.0000000  1
     55     58     59     81     1  0.0000000  0.8368000  2
     55     58     59     81     1  0.0000000  0.0000000  3
     55     58     59     81     1  0.0000000  0.0000000  4
     55     58     59     81     1  0.0000000  0.0000000  5
     53     55     58     59     1  180.0000771  -3.3472000  2
     53     55     58     59     1  0.0000000  0.0000000  3
     53     82     83     84     1  180.0000771  5.8576000  1
     53     82     83     84     1  180.0000771  11.2968000  2
     53     82     83    118     1  180.0000771  11.2968000  2
     50     53     55     58     1  180.0000771  3.3472000  1
     50     53     55     58     1  120.0000514  0.8368000  2
     50     53     55     58     1  60.0000257  1.6736000  3
     50     53     82     83     1  0.0000000  -0.4184000  1
     50     53     82     83     1  240.0001029  -1.2552000  2
     50     53     82     83     1  300.0001286  -0.8368000  3
     49     50     53     55     1  0.0000000  0.0000000  1
     49     50     53     55     1  0.0000000  0.0000000  2
     49     50     53     55     1  0.0000000  0.0000000  3
     49     50     53     55     1  0.0000000  0.0000000  4
     49     50     53     55     1  0.0000000  0.0000000  5
     49     50     53     82     1  180.0000771  -0.4184000  1
     49     50     53     82     1  0.0000000  1.2552000  2
     49     50     53     82     1  0.0000000  4.1840000  3
     48     47     49     50     1  180.0000771  5.8576000  1
     48     47     49     50     1  180.0000771  11.2968000  2
     47     49     50     53     1  0.0000000  -0.4184000  1
     47     49     50     53     1  240.0001029  -1.2552000  2
     47     49     50     53     1  300.0001286  -0.8368000  3
    126    128    130    133     1  0.0000000  2.5104000  1
    126    128    130    133     1  180.0000771  1.6736000  2
    126    128    130    133     1  180.0000771  1.6736000  3
    126    128    130    133     1  180.0000771  0.8368000  4
    126    128    130    133     1  180.0000771  0.8368000  5
    123    126    128    130     1  180.0000771  7.1128000  1
    123    126    128    130     1  180.0000771  13.8072000  2
    123    126    128    130     1  0.0000000  2.5104000  3
    123    126    128    130     1  0.0000000  0.0000000  4
    123    126    128    130     1  0.0000000  0.0000000  5
    121    123    126    128     1  0.0000000  0.0000000  1
    121    123    126    128     1  0.0000000  0.0000000  2
    121    123    126    128     1  0.0000000  0.0000000  3
    121    123    126    128     1  0.0000000  0.0000000  4
    121    123    126    128     1  0.0000000  0.0000000  5
    111    113    115    118     1  0.0000000  2.5104000  1
    111    113    115    118     1  180.0000771  1.6736000  2
    111    113    115    118     1  180.0000771  1.6736000  3
    111    113    115    118     1  180.0000771  0.8368000  4
    111    113    115    118     1  180.0000771  0.8368000  5
    108    111    113    115     1  180.0000771  7.1128000  1
    108    111    113    115     1  180.0000771  13.8072000  2
    108    111    113    115     1  0.0000000  2.5104000  3
    108    111    113    115     1  0.0000000  0.0000000  4
    108    111    113    115     1  0.0000000  0.0000000  5
    106    108    111    113     1  0.0000000  0.0000000  1
    106    108    111    113     1  0.0000000  0.0000000  2
    106    108    111    113     1  0.0000000  0.0000000  3
    106    108    111    113     1  0.0000000  0.0000000  4
    106    108    111    113     1  0.0000000  0.0000000  5
    104    106    108    111     1  0.0000000  0.0000000  1
    104    106    108    111     1  0.0000000  0.0000000  2
    104    106    108    111     1  0.0000000  0.0000000  3
    104    106    108    111     1  0.0000000  0.0000000  4
    104    106    108    111     1  0.0000000  0.0000000  5
    101    104    106    108     1  180.0000771  7.1128000  1
    101    104    106    108     1  180.0000771  13.8072000  2
    101    104    106    108     1  0.0000000  2.5104000  3
    101    104    106    108     1  0.0000000  0.0000000  4
    101    104    106    108     1  0.0000000  0.0000000  5
     99    101    104    106     1  0.0000000  0.0000000  1
     99    101    104    106     1  0.0000000  0.0000000  2
     99    101    104    106     1  0.0000000  0.0000000  3
     99    101    104    106     1  0.0000000  0.0000000  4
     99    101    104    106     1  0.0000000  0.0000000  5
     97     99    101    104     1  0.0000000  0.0000000  1
     97     99    101    104     1  0.0000000  0.0000000  2
     97     99    101    104     1  0.0000000  0.0000000  3
     97     99    101    104     1  0.0000000  0.0000000  4
     97     99    101    104     1  0.0000000  0.0000000  5
     94     97     99    101     1  180.0000771  7.1128000  1
     94     97     99    101     1  180.0000771  13.8072000  2
     94     97     99    101     1  0.0000000  2.5104000  3
     94     97     99    101     1  0.0000000  0.0000000  4
     94     97     99    101     1  0.0000000  0.0000000  5
     92     94     97     99     1  0.0000000  0.0000000  1
     92     94     97     99     1  0.0000000  0.0000000  2
     92     94     97     99     1  0.0000000  0.0000000  3
     92     94     97     99     1  0.0000000  0.0000000  4
     92     94     97     99     1  0.0000000  0.0000000  5
     90     87     85    121     1  0.0000000  0.0000000  1
     90     87     85    121     1  0.0000000  0.0000000  2
     90     87     85    121     1  0.0000000  0.0000000  3
     90     87     85    121     1  0.0000000  0.0000000  4
     90     87     85    121     1  0.0000000  0.0000000  5
     90     92     94     97     1  0.0000000  0.0000000  1
     90     92     94     97     1  0.0000000  0.0000000  2
     90     92     94     97     1  0.0000000  0.0000000  3
     90     92     94     97     1  0.0000000  0.0000000  4
     90     92     94     97     1  0.0000000  0.0000000  5
     87     85    121    123     1  180.0000771  7.1128000  1
     87     85    121    123     1  180.0000771  13.8072000  2
     87     85    121    123     1  0.0000000  2.5104000  3
     87     85    121    123     1  0.0000000  0.0000000  4
     87     85    121    123     1  0.0000000  0.0000000  5
     87     90     92     94     1  180.0000771  7.1128000  1
     87     90     92     94     1  180.0000771  13.8072000  2
     87     90     92     94     1  0.0000000  2.5104000  3
     87     90     92     94     1  0.0000000  0.0000000  4
     87     90     92     94     1  0.0000000  0.0000000  5
     85     87     90     92     1  0.0000000  0.0000000  1
     85     87     90     92     1  0.0000000  0.0000000  2
     85     87     90     92     1  0.0000000  0.0000000  3
     85     87     90     92     1  0.0000000  0.0000000  4
     85     87     90     92     1  0.0000000  0.0000000  5
     85    121    123    126     1  0.0000000  0.0000000  1
     85    121    123    126     1  0.0000000  0.0000000  2
     85    121    123    126     1  0.0000000  0.0000000  3
     85    121    123    126     1  0.0000000  0.0000000  4
     85    121    123    126     1  0.0000000  0.0000000  5
    118     84     83     82     4  180.0000771  43.9320000  2
     44     48     47     49     4  180.0000771  43.9320000  2
     46     44     47     48     1  0.0000000  3.3472000  1
     46     44     47     48     1  180.0000771  0.3347200  3
     46     44     47     49     1  180.0000771  0.0000000  2
     45     44     47     48     1  0.0000000  3.3472000  1
     45     44     47     48     1  180.0000771  0.3347200  3
     45     44     47     49     1  180.0000771  0.0000000  2
     43     41     44     45     1  0.0000000  0.6276000  3
     43     41     44     46     1  0.0000000  0.6276000  3
     43     41     44     47     1  0.0000000  0.6527040  3
     42     41     44     45     1  0.0000000  0.6276000  3
     42     41     44     46     1  0.0000000  0.6276000  3
     42     41     44     47     1  0.0000000  0.6527040  3
     40     38     41     42     1  0.0000000  0.6276000  3
     40     38     41     43     1  0.0000000  0.6276000  3
     40     38     41     44     1  0.0000000  0.6694400  3
     39     38     41     42     1  0.0000000  0.6276000  3
     39     38     41     43     1  0.0000000  0.6276000  3
     39     38     41     44     1  0.0000000  0.6694400  3
     38     41     44     45     1  0.0000000  0.6694400  3
     38     41     44     46     1  0.0000000  0.6694400  3
     37     35     38     39     1  0.0000000  0.6276000  3
     37     35     38     40     1  0.0000000  0.6276000  3
     37     35     38     41     1  0.0000000  0.6694400  3
     36     35     38     39     1  0.0000000  0.6276000  3
     36     35     38     40     1  0.0000000  0.6276000  3
     36     35     38     41     1  0.0000000  0.6694400  3
     35     38     41     42     1  0.0000000  0.6694400  3
     35     38     41     43     1  0.0000000  0.6694400  3
     34     32     35     36     1  0.0000000  0.6276000  3
     34     32     35     37     1  0.0000000  0.6276000  3
     34     32     35     38     1  0.0000000  0.6694400  3
     33     32     35     36     1  0.0000000  0.6276000  3
     33     32     35     37     1  0.0000000  0.6276000  3
     33     32     35     38     1  0.0000000  0.6694400  3
     32     35     38     39     1  0.0000000  0.6694400  3
     32     35     38     40     1  0.0000000  0.6694400  3
     31     29     32     33     1  0.0000000  0.6276000  3
     31     29     32     34     1  0.0000000  0.6276000  3
     31     29     32     35     1  0.0000000  0.6694400  3
     30     29     32     33     1  0.0000000  0.6276000  3
     30     29     32     34     1  0.0000000  0.6276000  3
     30     29     32     35     1  0.0000000  0.6694400  3
     29     32     35     36     1  0.0000000  0.6694400  3
     29     32     35     37     1  0.0000000  0.6694400  3
     28     26     29     30     1  0.0000000  0.6276000  3
     28     26     29     31     1  0.0000000  0.6276000  3
     28     26     29     32     1  0.0000000  0.6694400  3
     27     26     29     30     1  0.0000000  0.6276000  3
     27     26     29     31     1  0.0000000  0.6276000  3
     27     26     29     32     1  0.0000000  0.6694400  3
     26     29     32     33     1  0.0000000  0.6694400  3
     26     29     32     34     1  0.0000000  0.6694400  3
     25     23     26     27     1  0.0000000  0.6276000  3
     25     23     26     28     1  0.0000000  0.6276000  3
     25     23     26     29     1  0.0000000  0.6694400  3
     24     23     26     27     1  0.0000000  0.6276000  3
     24     23     26     28     1  0.0000000  0.6276000  3
     24     23     26     29     1  0.0000000  0.6694400  3
     23     26     29     30     1  0.0000000  0.6694400  3
     23     26     29     31     1  0.0000000  0.6694400  3
     22     20     23     24     1  0.0000000  0.6276000  3
     22     20     23     25     1  0.0000000  0.6276000  3
     22     20     23     26     1  0.0000000  0.6694400  3
     21     20     23     24     1  0.0000000  0.6276000  3
     21     20     23     25     1  0.0000000  0.6276000  3
     21     20     23     26     1  0.0000000  0.6694400  3
     20     23     26     27     1  0.0000000  0.6694400  3
     20     23     26     28     1  0.0000000  0.6694400  3
     19     17     20     21     1  0.0000000  0.6276000  3
     19     17     20     22     1  0.0000000  0.6276000  3
     19     17     20     23     1  0.0000000  0.6694400  3
     18     17     20     21     1  0.0000000  0.6276000  3
     18     17     20     22     1  0.0000000  0.6276000  3
     18     17     20     23     1  0.0000000  0.6694400  3
     17     20     23     24     1  0.0000000  0.6694400  3
     17     20     23     25     1  0.0000000  0.6694400  3
     16     14     17     18     1  0.0000000  0.6276000  3
     16     14     17     19     1  0.0000000  0.6276000  3
     16     14     17     20     1  0.0000000  0.6694400  3
     15     14     17     18     1  0.0000000  0.6276000  3
     15     14     17     19     1  0.0000000  0.6276000  3
     15     14     17     20     1  0.0000000  0.6694400  3
     14     17     20     21     1  0.0000000  0.6694400  3
     14     17     20     22     1  0.0000000  0.6694400  3
     13     11     14     15     1  0.0000000  0.6276000  3
     13     11     14     16     1  0.0000000  0.6276000  3
     13     11     14     17     1  0.0000000  0.6694400  3
     12     11     14     15     1  0.0000000  0.6276000  3
     12     11     14     16     1  0.0000000  0.6276000  3
     12     11     14     17     1  0.0000000  0.6694400  3
     11     14     17     18     1  0.0000000  0.6694400  3
     11     14     17     19     1  0.0000000  0.6694400  3
     10      8     11     12     1  0.0000000  0.6276000  3
     10      8     11     13     1  0.0000000  0.6276000  3
     10      8     11     14     1  0.0000000  0.6694400  3
      9      8     11     12     1  0.0000000  0.6276000  3
      9      8     11     13     1  0.0000000  0.6276000  3
      9      8     11     14     1  0.0000000  0.6694400  3
      8     11     14     15     1  0.0000000  0.6694400  3
      8     11     14     16     1  0.0000000  0.6694400  3
      7      5      8      9     1  0.0000000  0.6276000  3
      7      5      8     10     1  0.0000000  0.6276000  3
      7      5      8     11     1  0.0000000  0.6694400  3
      6      5      8      9     1  0.0000000  0.6276000  3
      6      5      8     10     1  0.0000000  0.6276000  3
      6      5      8     11     1  0.0000000  0.6694400  3
      5      8     11     12     1  0.0000000  0.6694400  3
      5      8     11     13     1  0.0000000  0.6694400  3
      4      1      5      6     1  0.0000000  0.6276000  3
      4      1      5      7     1  0.0000000  0.6276000  3
      4      1      5      8     1  0.0000000  0.6694400  3
      3      1      5      6     1  0.0000000  0.6276000  3
      3      1      5      7     1  0.0000000  0.6276000  3
      3      1      5      8     1  0.0000000  0.6694400  3
      2      1      5      6     1  0.0000000  0.6276000  3
      2      1      5      7     1  0.0000000  0.6276000  3
      2      1      5      8     1  0.0000000  0.6694400  3
      1      5      8      9     1  0.0000000  0.6694400  3
      1      5      8     10     1  0.0000000  0.6694400  3
     84     83    118    119     1  0.0000000  3.3472000  1
     84     83    118    119     1  180.0000771  0.3347200  3
     84     83    118    120     1  0.0000000  3.3472000  1
     84     83    118    120     1  180.0000771  0.3347200  3
     83    118    115    116     1  0.0000000  0.6527040  3
     83    118    115    117     1  0.0000000  0.6527040  3
     82     83    118    119     1  180.0000771  0.0000000  2
     82     83    118    120     1  180.0000771  0.0000000  2
     75     72     67     76     1  0.0000000  0.6527040  3
     74     72     67     76     1  0.0000000  0.6527040  3
     73     72     67     76     1  0.0000000  0.6527040  3
     72     67     76     77     1  0.0000000  0.6527040  3
     72     67     76     78     1  0.0000000  0.6527040  3
     72     67     76     79     1  0.0000000  0.6527040  3
     71     68     67     72     1  0.0000000  0.6527040  3
     71     68     67     76     1  0.0000000  0.6527040  3
     70     68     67     72     1  0.0000000  0.6527040  3
     70     68     67     76     1  0.0000000  0.6527040  3
     69     68     67     72     1  0.0000000  0.6527040  3
     69     68     67     76     1  0.0000000  0.6527040  3
     68     67     72     73     1  0.0000000  0.6527040  3
     68     67     72     74     1  0.0000000  0.6527040  3
     68     67     72     75     1  0.0000000  0.6527040  3
     68     67     76     77     1  0.0000000  0.6527040  3
     68     67     76     78     1  0.0000000  0.6527040  3
     68     67     76     79     1  0.0000000  0.6527040  3
     66     64     67     68     1  0.0000000  0.6527040  3
     66     64     67     72     1  0.0000000  0.6527040  3
     66     64     67     76     1  0.0000000  0.6527040  3
     65     64     67     68     1  0.0000000  0.6527040  3
     65     64     67     72     1  0.0000000  0.6527040  3
     65     64     67     76     1  0.0000000  0.6527040  3
     64     67     68     69     1  0.0000000  0.6527040  3
     64     67     68     70     1  0.0000000  0.6527040  3
     64     67     68     71     1  0.0000000  0.6527040  3
     64     67     72     73     1  0.0000000  0.6527040  3
     64     67     72     74     1  0.0000000  0.6527040  3
     64     67     72     75     1  0.0000000  0.6527040  3
     64     67     76     77     1  0.0000000  0.6527040  3
     64     67     76     78     1  0.0000000  0.6527040  3
     64     67     76     79     1  0.0000000  0.6527040  3
     63     61     64     65     1  0.0000000  0.6527040  3
     63     61     64     66     1  0.0000000  0.6527040  3
     63     61     64     67     1  0.0000000  0.6527040  3
     62     61     64     65     1  0.0000000  0.6527040  3
     62     61     64     66     1  0.0000000  0.6527040  3
     62     61     64     67     1  0.0000000  0.6527040  3
     60     61     64     65     1  0.0000000  0.6527040  3
     60     61     64     66     1  0.0000000  0.6527040  3
     59     60     61     62     1  0.0000000  0.0000000  1
     59     60     61     62     1  0.0000000  0.0000000  2
     59     60     61     62     1  0.0000000  1.6024720  3
     59     60     61     62     1  0.0000000  0.0000000  4
     59     60     61     62     1  0.0000000  0.0000000  5
     59     60     61     63     1  0.0000000  0.0000000  1
     59     60     61     63     1  0.0000000  0.0000000  2
     59     60     61     63     1  0.0000000  1.6024720  3
     59     60     61     63     1  0.0000000  0.0000000  4
     59     60     61     63     1  0.0000000  0.0000000  5
     57     55     53     82     1  0.0000000  1.0460000  1
     57     55     53     82     1  0.0000000  0.0000000  3
     57     55     58     59     1  0.0000000  0.0000000  1
     57     55     58     59     1  0.0000000  0.0000000  2
     57     55     58     59     1  0.0000000  1.6024720  3
     57     55     58     59     1  0.0000000  0.0000000  4
     57     55     58     59     1  0.0000000  0.0000000  5
     56     55     53     82     1  0.0000000  1.0460000  1
     56     55     53     82     1  0.0000000  0.0000000  3
     56     55     58     59     1  0.0000000  0.0000000  1
     56     55     58     59     1  0.0000000  0.0000000  2
     56     55     58     59     1  0.0000000  1.6024720  3
     56     55     58     59     1  0.0000000  0.0000000  4
     56     55     58     59     1  0.0000000  0.0000000  5
     54     53     55     56     1  0.0000000  0.6527040  3
     54     53     55     57     1  0.0000000  0.6527040  3
     54     53     55     58     1  0.0000000  1.0460000  1
     54     53     55     58     1  0.0000000  0.0000000  3
     54     53     82     83     1  0.0000000  1.6024720  3
     52     50     53     54     1  0.0000000  0.6527040  3
     52     50     53     55     1  0.0000000  0.6527040  3
     52     50     53     82     1  0.0000000  1.0460000  1
     52     50     53     82     1  0.0000000  0.0000000  3
     51     50     53     54     1  0.0000000  0.6527040  3
     51     50     53     55     1  0.0000000  0.6527040  3
     51     50     53     82     1  0.0000000  1.0460000  1
     51     50     53     82     1  0.0000000  0.0000000  3
     50     53     55     56     1  0.0000000  0.6527040  3
     50     53     55     57     1  0.0000000  0.6527040  3
     49     50     53     54     1  0.0000000  1.0460000  1
     49     50     53     54     1  0.0000000  0.0000000  3
     47     49     50     51     1  0.0000000  1.6024720  3
     47     49     50     52     1  0.0000000  1.6024720  3
    132    130    133    134     1  0.0000000  0.6276000  3
    132    130    133    135     1  0.0000000  0.6276000  3
    132    130    133    136     1  0.0000000  0.6276000  3
    131    130    133    134     1  0.0000000  0.6276000  3
    131    130    133    135     1  0.0000000  0.6276000  3
    131    130    133    136     1  0.0000000  0.6276000  3
    129    128    130    131     1  0.0000000  0.0000000  2
    129    128    130    132     1  0.0000000  0.0000000  2
    129    128    130    133     1  0.0000000  0.0000000  2
    128    130    133    134     1  0.0000000  0.6510304  3
    128    130    133    135     1  0.0000000  0.6510304  3
    128    130    133    136     1  0.0000000  0.6510304  3
    127    126    128    129     1  180.0000771  27.8236000  2
    127    126    128    130     1  180.0000771  27.8236000  2
    126    128    130    131     1  0.0000000  4.8116000  1
    126    128    130    131     1  180.0000771  1.5899200  3
    126    128    130    132     1  0.0000000  4.8116000  1
    126    128    130    132     1  180.0000771  1.5899200  3
    125    123    126    127     1  0.0000000  0.0000000  2
    125    123    126    128     1  0.0000000  4.8116000  1
    125    123    126    128     1  180.0000771  1.5899200  3
    124    123    126    127     1  0.0000000  0.0000000  2
    124    123    126    128     1  0.0000000  4.8116000  1
    124    123    126    128     1  180.0000771  1.5899200  3
    123    126    128    129     1  180.0000771  27.8236000  2
    122    121    123    124     1  0.0000000  0.0000000  2
    122    121    123    125     1  0.0000000  0.0000000  2
    122    121    123    126     1  0.0000000  0.0000000  2
    121    123    126    127     1  0.0000000  0.0000000  2
    117    115    118    119     1  0.0000000  0.6276000  3
    117    115    118    120     1  0.0000000  0.6276000  3
    116    115    118    119     1  0.0000000  0.6276000  3
    116    115    118    120     1  0.0000000  0.6276000  3
    114    113    115    116     1  0.0000000  0.0000000  2
    114    113    115    117     1  0.0000000  0.0000000  2
    114    113    115    118     1  0.0000000  0.0000000  2
    113    115    118    119     1  0.0000000  0.6510304  3
    113    115    118    120     1  0.0000000  0.6510304  3
    112    111    113    114     1  180.0000771  27.8236000  2
    112    111    113    115     1  180.0000771  27.8236000  2
    111    113    115    116     1  0.0000000  4.8116000  1
    111    113    115    116     1  180.0000771  1.5899200  3
    111    113    115    117     1  0.0000000  4.8116000  1
    111    113    115    117     1  180.0000771  1.5899200  3
    110    108    111    112     1  0.0000000  0.0000000  2
    110    108    111    113     1  0.0000000  4.8116000  1
    110    108    111    113     1  180.0000771  1.5899200  3
    109    108    111    112     1  0.0000000  0.0000000  2
    109    108    111    113     1  0.0000000  4.8116000  1
    109    108    111    113     1  180.0000771  1.5899200  3
    108    111    113    114     1  180.0000771  27.8236000  2
    107    106    108    109     1  0.0000000  0.0000000  2
    107    106    108    110     1  0.0000000  0.0000000  2
    107    106    108    111     1  0.0000000  0.0000000  2
    106    108    111    112     1  0.0000000  0.0000000  2
    105    104    106    107     1  180.0000771  27.8236000  2
    105    104    106    108     1  180.0000771  27.8236000  2
    104    106    108    109     1  0.0000000  4.8116000  1
    104    106    108    109     1  180.0000771  1.5899200  3
    104    106    108    110     1  0.0000000  4.8116000  1
    104    106    108    110     1  180.0000771  1.5899200  3
    103    101    104    105     1  0.0000000  0.0000000  2
    103    101    104    106     1  0.0000000  4.8116000  1
    103    101    104    106     1  180.0000771  1.5899200  3
    102    101    104    105     1  0.0000000  0.0000000  2
    102    101    104    106     1  0.0000000  4.8116000  1
    102    101    104    106     1  180.0000771  1.5899200  3
    101    104    106    107     1  180.0000771  27.8236000  2
    100     99    101    102     1  0.0000000  0.0000000  2
    100     99    101    103     1  0.0000000  0.0000000  2
    100     99    101    104     1  0.0000000  0.0000000  2
     99    101    104    105     1  0.0000000  0.0000000  2
     98     97     99    100     1  180.0000771  27.8236000  2
     98     97     99    101     1  180.0000771  27.8236000  2
     97     99    101    102     1  0.0000000  4.8116000  1
     97     99    101    102     1  180.0000771  1.5899200  3
     97     99    101    103     1  0.0000000  4.8116000  1
     97     99    101    103     1  180.0000771  1.5899200  3
     96     94     97     98     1  0.0000000  0.0000000  2
     96     94     97     99     1  0.0000000  4.8116000  1
     96     94     97     99     1  180.0000771  1.5899200  3
     95     94     97     98     1  0.0000000  0.0000000  2
     95     94     97     99     1  0.0000000  4.8116000  1
     95     94     97     99     1  180.0000771  1.5899200  3
     94     97     99    100     1  180.0000771  27.8236000  2
     93     92     94     95     1  0.0000000  0.0000000  2
     93     92     94     96     1  0.0000000  0.0000000  2
     93     92     94     97     1  0.0000000  0.0000000  2
     92     94     97     98     1  0.0000000  0.0000000  2
     91     90     92     93     1  180.0000771  27.8236000  2
     91     90     92     94     1  180.0000771  27.8236000  2
     90     92     94     95     1  0.0000000  4.8116000  1
     90     92     94     95     1  180.0000771  1.5899200  3
     90     92     94     96     1  0.0000000  4.8116000  1
     90     92     94     96     1  180.0000771  1.5899200  3
     89     87     85    121     1  0.0000000  4.8116000  1
     89     87     85    121     1  180.0000771  1.5899200  3
     89     87     90     91     1  0.0000000  0.0000000  2
     89     87     90     92     1  0.0000000  4.8116000  1
     89     87     90     92     1  180.0000771  1.5899200  3
     88     87     85    121     1  0.0000000  4.8116000  1
     88     87     85    121     1  180.0000771  1.5899200  3
     88     87     90     91     1  0.0000000  0.0000000  2
     88     87     90     92     1  0.0000000  4.8116000  1
     88     87     90     92     1  180.0000771  1.5899200  3
     87     85    121    122     1  180.0000771  27.8236000  2
     87     90     92     93     1  180.0000771  27.8236000  2
     86     85     87     88     1  0.0000000  0.0000000  2
     86     85     87     89     1  0.0000000  0.0000000  2
     86     85     87     90     1  0.0000000  0.0000000  2
     86     85    121    122     1  180.0000771  27.8236000  2
     86     85    121    123     1  180.0000771  27.8236000  2
     85     87     90     91     1  0.0000000  0.0000000  2
     85    121    123    124     1  0.0000000  4.8116000  1
     85    121    123    124     1  180.0000771  1.5899200  3
     85    121    123    125     1  0.0000000  4.8116000  1
     85    121    123    125     1  180.0000771  1.5899200  3
    126    130    128    129     4  180.0000771  4.6024000  2
    128    123    126    127     4  180.0000771  4.6024000  2
     85    123    121    122     4  180.0000771  4.6024000  2
    111    115    113    114     4  180.0000771  4.6024000  2
    113    108    111    112     4  180.0000771  4.6024000  2
    104    108    106    107     4  180.0000771  4.6024000  2
    106    101    104    105     4  180.0000771  4.6024000  2
     97    101     99    100     4  180.0000771  4.6024000  2
     99     94     97     98     4  180.0000771  4.6024000  2
     90     94     92     93     4  180.0000771  4.6024000  2
     92     87     90     91     4  180.0000771  4.6024000  2
    121     87     85     86     4  180.0000771  4.6024000  2
