; Exact Amber Lipid21 v1.0 topology converted by ParmEd
; Explicit [pairs] preserve Lipid21-specific 1-4 scaling.
; Conversion contract: amber-explicit-pairs-v2 (independent of parent defaults).

[ moleculetype ]
; Name nrexcl
SAPE 3

[ atoms ]
; nr type resnr residue atom cgnr charge mass
1 L21_cD 1 SAPE C18X 1 -0.12006900 12.010000
2 L21_hL 1 SAPE H18X 2 0.02793800 1.008000
3 L21_hL 1 SAPE H18Y 3 0.02793800 1.008000
4 L21_hL 1 SAPE H18Z 4 0.02793800 1.008000
5 L21_cD 1 SAPE C17X 5 0.02066500 12.010000
6 L21_hL 1 SAPE H17X 6 0.00848300 1.008000
7 L21_hL 1 SAPE H17Y 7 0.00848300 1.008000
8 L21_cD 1 SAPE C16X 8 -0.02765400 12.010000
9 L21_hL 1 SAPE H16X 9 0.01562700 1.008000
10 L21_hL 1 SAPE H16Y 10 0.01562700 1.008000
11 L21_cD 1 SAPE C15X 11 -0.03244400 12.010000
12 L21_hL 1 SAPE H15X 12 0.01025300 1.008000
13 L21_hL 1 SAPE H15Y 13 0.01025300 1.008000
14 L21_cD 1 SAPE C14X 14 -0.01348900 12.010000
15 L21_hL 1 SAPE H14X 15 0.01007300 1.008000
16 L21_hL 1 SAPE H14Y 16 0.01007300 1.008000
17 L21_cD 1 SAPE C13X 17 -0.01159000 12.010000
18 L21_hL 1 SAPE H13X 18 0.00602200 1.008000
19 L21_hL 1 SAPE H13Y 19 0.00602200 1.008000
20 L21_cD 1 SAPE C12X 20 -0.01915300 12.010000
21 L21_hL 1 SAPE H12X 21 0.00819800 1.008000
22 L21_hL 1 SAPE H12Y 22 0.00819800 1.008000
23 L21_cD 1 SAPE C11X 23 -0.01709300 12.010000
24 L21_hL 1 SAPE H11X 24 0.01020600 1.008000
25 L21_hL 1 SAPE H11Y 25 0.01020600 1.008000
26 L21_cD 1 SAPE C10X 26 -0.02641800 12.010000
27 L21_hL 1 SAPE H10X 27 0.01082500 1.008000
28 L21_hL 1 SAPE H10Y 28 0.01082500 1.008000
29 L21_cD 1 SAPE C9X 29 -0.01799700 12.010000
30 L21_hL 1 SAPE H9X 30 0.00959500 1.008000
31 L21_hL 1 SAPE H9Y 31 0.00959500 1.008000
32 L21_cD 1 SAPE C8X 32 -0.01462300 12.010000
33 L21_hL 1 SAPE H8X 33 0.00732600 1.008000
34 L21_hL 1 SAPE H8Y 34 0.00732600 1.008000
35 L21_cD 1 SAPE C7X 35 -0.01946900 12.010000
36 L21_hL 1 SAPE H7X 36 0.00929200 1.008000
37 L21_hL 1 SAPE H7Y 37 0.00929200 1.008000
38 L21_cD 1 SAPE C6X 38 -0.03762700 12.010000
39 L21_hL 1 SAPE H6X 39 0.01774000 1.008000
40 L21_hL 1 SAPE H6Y 40 0.01774000 1.008000
41 L21_cD 1 SAPE C5X 41 -0.01344300 12.010000
42 L21_hL 1 SAPE H5X 42 0.00819100 1.008000
43 L21_hL 1 SAPE H5Y 43 0.00819100 1.008000
44 L21_cD 1 SAPE C4X 44 -0.05979200 12.010000
45 L21_hL 1 SAPE H4X 45 0.02424100 1.008000
46 L21_hL 1 SAPE H4Y 46 0.02424100 1.008000
47 L21_cD 1 SAPE C3X 47 -0.00012800 12.010000
48 L21_hL 1 SAPE H3X 48 0.01388600 1.008000
49 L21_hL 1 SAPE H3Y 49 0.01388600 1.008000
50 L21_cD 1 SAPE C2X 50 -0.11702000 12.010000
51 L21_hL 1 SAPE H2X 51 0.05180700 1.008000
52 L21_hL 1 SAPE H2Y 52 0.05180700 1.008000
53 L21_cC 1 SAPE C11 53 0.88835900 12.010000
54 L21_oC 1 SAPE O12 54 -0.65080200 16.000000
55 L21_oS 1 SAPE O11 55 -0.59382600 16.000000
56 L21_cA 1 SAPE C1 56 0.27377600 12.010000
57 L21_hE 1 SAPE HR 57 0.04457400 1.008000
58 L21_hE 1 SAPE HS 58 0.04457400 1.008000
59 L21_cA 1 SAPE C2 59 0.33900400 12.010000
60 L21_hE 1 SAPE HX 60 0.03284300 1.008000
61 L21_cA 1 SAPE C3 61 0.04096700 12.010000
62 L21_hE 1 SAPE HA 62 0.09099400 1.008000
63 L21_hE 1 SAPE HB 63 0.09099400 1.008000
64 L21_oT 1 SAPE O31 64 -0.54662300 16.000000
65 L21_pA 1 SAPE P31 65 1.37365600 30.970000
66 L21_oT 1 SAPE O32 66 -0.51454200 16.000000
67 L21_cA 1 SAPE C31 67 0.07515900 12.010000
68 L21_hE 1 SAPE H1A 68 0.09151600 1.008000
69 L21_hE 1 SAPE H1B 69 0.09151600 1.008000
70 L21_cA 1 SAPE C32 70 0.07731900 12.010000
71 L21_hX 1 SAPE H2A 71 0.09163000 1.008000
72 L21_hX 1 SAPE H2B 72 0.09163000 1.008000
73 L21_nA 1 SAPE N31 73 -0.36813200 14.010000
74 L21_hN 1 SAPE HN1A 74 0.34854900 1.008000
75 L21_hN 1 SAPE HN1B 75 0.34854900 1.008000
76 L21_hN 1 SAPE HN1C 76 0.34854900 1.008000
77 L21_oP 1 SAPE O33 77 -0.87744700 16.000000
78 L21_oP 1 SAPE O34 78 -0.87744700 16.000000
79 L21_oS 1 SAPE O21 79 -0.57548000 16.000000
80 L21_cC 1 SAPE C21 80 0.86934000 12.010000
81 L21_oC 1 SAPE O22 81 -0.64919900 16.000000
82 L21_cD 1 SAPE C16Y 82 0.03910000 12.010000
83 L21_hL 1 SAPE H16U 83 0.02884800 1.008000
84 L21_hL 1 SAPE H16V 84 0.02884800 1.008000
85 L21_cB 1 SAPE C15Y 85 -0.24414900 12.010000
86 L21_hB 1 SAPE H15U 86 0.13279300 1.008000
87 L21_cB 1 SAPE C14Y 87 -0.22476900 12.010000
88 L21_hB 1 SAPE H14U 88 0.12961600 1.008000
89 L21_cD 1 SAPE C13Y 89 0.05819700 12.010000
90 L21_hL 1 SAPE H13U 90 0.06135000 1.008000
91 L21_hL 1 SAPE H13V 91 0.06135000 1.008000
92 L21_cB 1 SAPE C12Y 92 -0.22016400 12.010000
93 L21_hB 1 SAPE H12U 93 0.13198600 1.008000
94 L21_cB 1 SAPE C11Y 94 -0.22870400 12.010000
95 L21_hB 1 SAPE H11U 95 0.13134100 1.008000
96 L21_cD 1 SAPE C10Y 96 0.09540600 12.010000
97 L21_hL 1 SAPE H10U 97 0.05114000 1.008000
98 L21_hL 1 SAPE H10V 98 0.05114000 1.008000
99 L21_cB 1 SAPE C9Y 99 -0.22869400 12.010000
100 L21_hB 1 SAPE H9U 100 0.13216700 1.008000
101 L21_cB 1 SAPE C8Y 101 -0.22852700 12.010000
102 L21_hB 1 SAPE H8U 102 0.13473500 1.008000
103 L21_cD 1 SAPE C7Y 103 0.05578400 12.010000
104 L21_hL 1 SAPE H7U 104 0.06277500 1.008000
105 L21_hL 1 SAPE H7V 105 0.06277500 1.008000
106 L21_cB 1 SAPE C6Y 106 -0.20678600 12.010000
107 L21_hB 1 SAPE H6U 107 0.12985800 1.008000
108 L21_cB 1 SAPE C5Y 108 -0.26789000 12.010000
109 L21_hB 1 SAPE H5U 109 0.14357700 1.008000
110 L21_cD 1 SAPE C4Y 110 0.03138200 12.010000
111 L21_hL 1 SAPE H4U 111 0.03870800 1.008000
112 L21_hL 1 SAPE H4V 112 0.03870800 1.008000
113 L21_cD 1 SAPE C3Y 113 0.02562600 12.010000
114 L21_hL 1 SAPE H3U 114 0.02511700 1.008000
115 L21_hL 1 SAPE H3V 115 0.02511700 1.008000
116 L21_cD 1 SAPE C2Y 116 -0.12393500 12.010000
117 L21_hL 1 SAPE H2U 117 0.02453500 1.008000
118 L21_hL 1 SAPE H2V 118 0.02453500 1.008000
119 L21_cD 1 SAPE C17Y 119 -0.02839800 12.010000
120 L21_hL 1 SAPE H17U 120 0.01958100 1.008000
121 L21_hL 1 SAPE H17V 121 0.01958100 1.008000
122 L21_cD 1 SAPE C18Y 122 -0.01977200 12.010000
123 L21_hL 1 SAPE H18U 123 0.01421800 1.008000
124 L21_hL 1 SAPE H18V 124 0.01421800 1.008000
125 L21_cD 1 SAPE C19Y 125 0.02495700 12.010000
126 L21_hL 1 SAPE H19U 126 0.00542600 1.008000
127 L21_hL 1 SAPE H19V 127 0.00542600 1.008000
128 L21_cD 1 SAPE C20Y 128 -0.10930200 12.010000
129 L21_hL 1 SAPE H20U 129 0.02372300 1.008000
130 L21_hL 1 SAPE H20V 130 0.02372300 1.008000
131 L21_hL 1 SAPE H20W 131 0.02372300 1.008000

[ bonds ]
;    ai     aj funct         c0         c1         c2         c3
     50     53     1   0.15080 274721.440000
     47     50     1   0.15350 253634.080000
     44     47     1   0.15350 253634.080000
     41     44     1   0.15350 253634.080000
     38     41     1   0.15350 253634.080000
     35     38     1   0.15350 253634.080000
     32     35     1   0.15350 253634.080000
     29     32     1   0.15350 253634.080000
     26     29     1   0.15350 253634.080000
     23     26     1   0.15350 253634.080000
     20     23     1   0.15350 253634.080000
     17     20     1   0.15350 253634.080000
     14     17     1   0.15350 253634.080000
     11     14     1   0.15350 253634.080000
      8     11     1   0.15350 253634.080000
      5      8     1   0.15350 253634.080000
      1      5     1   0.15350 253634.080000
     80     81     1   0.12140 542246.400000
     80    116     1   0.15080 274721.440000
     79     80     1   0.13430 344175.840000
     70     73     1   0.14990 245684.480000
     67     70     1   0.15350 253634.080000
     66     67     1   0.14390 252295.200000
     65     66     1   0.16100 192464.000000
     65     77     1   0.14800 439320.000000
     65     78     1   0.14800 439320.000000
     64     65     1   0.16100 192464.000000
     61     64     1   0.14390 252295.200000
     59     61     1   0.15350 253634.080000
     59     79     1   0.14390 252295.200000
     56     59     1   0.15350 253634.080000
     55     56     1   0.14390 252295.200000
     53     54     1   0.12140 542246.400000
     53     55     1   0.13430 344175.840000
    125    128     1   0.15350 253634.080000
    122    125     1   0.15350 253634.080000
    119    122     1   0.15350 253634.080000
    113    116     1   0.15350 253634.080000
    110    113     1   0.15350 253634.080000
    108    110     1   0.15080 274721.440000
    106    108     1   0.13240 493460.960000
    103    106     1   0.15080 274721.440000
    101    103     1   0.15080 274721.440000
     99    101     1   0.13240 493460.960000
     96     99     1   0.15080 274721.440000
     94     96     1   0.15080 274721.440000
     92     94     1   0.13240 493460.960000
     89     92     1   0.15080 274721.440000
     87     89     1   0.15080 274721.440000
     85     87     1   0.13240 493460.960000
     82     85     1   0.15080 274721.440000
     82    119     1   0.15350 253634.080000
     50     51     1   0.10920 282252.640000
     50     52     1   0.10920 282252.640000
     47     49     1   0.10920 282252.640000
     47     48     1   0.10920 282252.640000
     44     45     1   0.10920 282252.640000
     44     46     1   0.10920 282252.640000
     41     43     1   0.10920 282252.640000
     41     42     1   0.10920 282252.640000
     38     39     1   0.10920 282252.640000
     38     40     1   0.10920 282252.640000
     35     37     1   0.10920 282252.640000
     35     36     1   0.10920 282252.640000
     32     33     1   0.10920 282252.640000
     32     34     1   0.10920 282252.640000
     29     31     1   0.10920 282252.640000
     29     30     1   0.10920 282252.640000
     26     27     1   0.10920 282252.640000
     26     28     1   0.10920 282252.640000
     23     25     1   0.10920 282252.640000
     23     24     1   0.10920 282252.640000
     20     21     1   0.10920 282252.640000
     20     22     1   0.10920 282252.640000
     17     19     1   0.10920 282252.640000
     17     18     1   0.10920 282252.640000
     14     15     1   0.10920 282252.640000
     14     16     1   0.10920 282252.640000
     11     13     1   0.10920 282252.640000
     11     12     1   0.10920 282252.640000
      8      9     1   0.10920 282252.640000
      8     10     1   0.10920 282252.640000
      5      7     1   0.10920 282252.640000
      5      6     1   0.10920 282252.640000
      1      4     1   0.10920 282252.640000
      1      3     1   0.10920 282252.640000
      1      2     1   0.10920 282252.640000
     73     74     1   0.10330 308779.200000
     73     75     1   0.10330 308779.200000
     73     76     1   0.10330 308779.200000
     70     71     1   0.10910 283424.160000
     70     72     1   0.10910 283424.160000
     67     68     1   0.10930 281081.120000
     67     69     1   0.10930 281081.120000
     61     62     1   0.10930 281081.120000
     61     63     1   0.10930 281081.120000
     59     60     1   0.10930 281081.120000
     56     57     1   0.10930 281081.120000
     56     58     1   0.10930 281081.120000
    128    129     1   0.10920 282252.640000
    128    130     1   0.10920 282252.640000
    128    131     1   0.10920 282252.640000
    125    126     1   0.10920 282252.640000
    125    127     1   0.10920 282252.640000
    122    123     1   0.10920 282252.640000
    122    124     1   0.10920 282252.640000
    119    120     1   0.10920 282252.640000
    119    121     1   0.10920 282252.640000
    116    117     1   0.10920 282252.640000
    116    118     1   0.10920 282252.640000
    113    114     1   0.10920 282252.640000
    113    115     1   0.10920 282252.640000
    110    111     1   0.10920 282252.640000
    110    112     1   0.10920 282252.640000
    108    109     1   0.10870 288110.240000
    106    107     1   0.10870 288110.240000
    103    104     1   0.10920 282252.640000
    103    105     1   0.10920 282252.640000
    101    102     1   0.10870 288110.240000
     99    100     1   0.10870 288110.240000
     96     97     1   0.10920 282252.640000
     96     98     1   0.10920 282252.640000
     94     95     1   0.10870 288110.240000
     92     93     1   0.10870 288110.240000
     89     90     1   0.10920 282252.640000
     89     91     1   0.10920 282252.640000
     87     88     1   0.10870 288110.240000
     85     86     1   0.10870 288110.240000
     82     83     1   0.10920 282252.640000
     82     84     1   0.10920 282252.640000


[ pairs ]
; ai aj funct fudgeQQ qi qj sigma epsilon; source-specific LJ and charge scaling
1 9 2 0.83333333333333 -0.12006900007134 0.015626999994512 0.30005468824211 0.069194303392389
1 10 2 0.83333333333333 -0.12006900007134 0.015626999994512 0.30005468824211 0.069194303392389
1 11 2 0.83333333333333 -0.12006900007134 -0.032443999989024 0.33996695084507 0.076288266607901
2 6 2 0.83333333333333 0.027937999978049 0.0084830000054878 0.26014242576773 0.020919999936173
2 7 2 0.83333333333333 0.027937999978049 0.0084830000054878 0.26014242576773 0.020919999936173
2 8 2 0.83333333333333 0.027937999978049 -0.027653999989024 0.30005468824211 0.069194303392389
3 6 2 0.83333333333333 0.027937999978049 0.0084830000054878 0.26014242576773 0.020919999936173
3 7 2 0.83333333333333 0.027937999978049 0.0084830000054878 0.26014242576773 0.020919999936173
3 8 2 0.83333333333333 0.027937999978049 -0.027653999989024 0.30005468824211 0.069194303392389
4 6 2 0.83333333333333 0.027937999978049 0.0084830000054878 0.26014242576773 0.020919999936173
4 7 2 0.83333333333333 0.027937999978049 0.0084830000054878 0.26014242576773 0.020919999936173
4 8 2 0.83333333333333 0.027937999978049 -0.027653999989024 0.30005468824211 0.069194303392389
5 12 2 0.83333333333333 0.020665000027439 0.010253000005488 0.30005468824211 0.069194303392389
5 13 2 0.83333333333333 0.020665000027439 0.010253000005488 0.30005468824211 0.069194303392389
5 14 2 0.83333333333333 0.020665000027439 -0.013489000016463 0.33996695084507 0.076288266607901
6 9 2 0.83333333333333 0.0084830000054878 0.015626999994512 0.26014242576773 0.020919999936173
6 10 2 0.83333333333333 0.0084830000054878 0.015626999994512 0.26014242576773 0.020919999936173
6 11 2 0.83333333333333 0.0084830000054878 -0.032443999989024 0.30005468824211 0.069194303392389
7 9 2 0.83333333333333 0.0084830000054878 0.015626999994512 0.26014242576773 0.020919999936173
7 10 2 0.83333333333333 0.0084830000054878 0.015626999994512 0.26014242576773 0.020919999936173
7 11 2 0.83333333333333 0.0084830000054878 -0.032443999989024 0.30005468824211 0.069194303392389
8 15 2 0.83333333333333 -0.027653999989024 0.010073000005488 0.30005468824211 0.069194303392389
8 16 2 0.83333333333333 -0.027653999989024 0.010073000005488 0.30005468824211 0.069194303392389
8 17 2 0.83333333333333 -0.027653999989024 -0.01159 0.33996695084507 0.076288266607901
9 12 2 0.83333333333333 0.015626999994512 0.010253000005488 0.26014242576773 0.020919999936173
9 13 2 0.83333333333333 0.015626999994512 0.010253000005488 0.26014242576773 0.020919999936173
9 14 2 0.83333333333333 0.015626999994512 -0.013489000016463 0.30005468824211 0.069194303392389
10 12 2 0.83333333333333 0.015626999994512 0.010253000005488 0.26014242576773 0.020919999936173
10 13 2 0.83333333333333 0.015626999994512 0.010253000005488 0.26014242576773 0.020919999936173
10 14 2 0.83333333333333 0.015626999994512 -0.013489000016463 0.30005468824211 0.069194303392389
11 18 2 0.83333333333333 -0.032443999989024 0.0060220000219511 0.30005468824211 0.069194303392389
11 19 2 0.83333333333333 -0.032443999989024 0.0060220000219511 0.30005468824211 0.069194303392389
11 20 2 0.83333333333333 -0.032443999989024 -0.019153000005488 0.33996695084507 0.076288266607901
12 15 2 0.83333333333333 0.010253000005488 0.010073000005488 0.26014242576773 0.020919999936173
12 16 2 0.83333333333333 0.010253000005488 0.010073000005488 0.26014242576773 0.020919999936173
12 17 2 0.83333333333333 0.010253000005488 -0.01159 0.30005468824211 0.069194303392389
13 15 2 0.83333333333333 0.010253000005488 0.010073000005488 0.26014242576773 0.020919999936173
13 16 2 0.83333333333333 0.010253000005488 0.010073000005488 0.26014242576773 0.020919999936173
13 17 2 0.83333333333333 0.010253000005488 -0.01159 0.30005468824211 0.069194303392389
14 21 2 0.83333333333333 -0.013489000016463 0.0081979999780489 0.30005468824211 0.069194303392389
14 22 2 0.83333333333333 -0.013489000016463 0.0081979999780489 0.30005468824211 0.069194303392389
14 23 2 0.83333333333333 -0.013489000016463 -0.017093000005488 0.33996695084507 0.076288266607901
15 18 2 0.83333333333333 0.010073000005488 0.0060220000219511 0.26014242576773 0.020919999936173
15 19 2 0.83333333333333 0.010073000005488 0.0060220000219511 0.26014242576773 0.020919999936173
15 20 2 0.83333333333333 0.010073000005488 -0.019153000005488 0.30005468824211 0.069194303392389
16 18 2 0.83333333333333 0.010073000005488 0.0060220000219511 0.26014242576773 0.020919999936173
16 19 2 0.83333333333333 0.010073000005488 0.0060220000219511 0.26014242576773 0.020919999936173
16 20 2 0.83333333333333 0.010073000005488 -0.019153000005488 0.30005468824211 0.069194303392389
17 24 2 0.83333333333333 -0.01159 0.010206000010976 0.30005468824211 0.069194303392389
17 25 2 0.83333333333333 -0.01159 0.010206000010976 0.30005468824211 0.069194303392389
17 26 2 0.83333333333333 -0.01159 -0.026417999978049 0.33996695084507 0.076288266607901
18 21 2 0.83333333333333 0.0060220000219511 0.0081979999780489 0.26014242576773 0.020919999936173
18 22 2 0.83333333333333 0.0060220000219511 0.0081979999780489 0.26014242576773 0.020919999936173
18 23 2 0.83333333333333 0.0060220000219511 -0.017093000005488 0.30005468824211 0.069194303392389
19 21 2 0.83333333333333 0.0060220000219511 0.0081979999780489 0.26014242576773 0.020919999936173
19 22 2 0.83333333333333 0.0060220000219511 0.0081979999780489 0.26014242576773 0.020919999936173
19 23 2 0.83333333333333 0.0060220000219511 -0.017093000005488 0.30005468824211 0.069194303392389
20 27 2 0.83333333333333 -0.019153000005488 0.010824999972561 0.30005468824211 0.069194303392389
20 28 2 0.83333333333333 -0.019153000005488 0.010824999972561 0.30005468824211 0.069194303392389
20 29 2 0.83333333333333 -0.019153000005488 -0.017996999994512 0.33996695084507 0.076288266607901
21 24 2 0.83333333333333 0.0081979999780489 0.010206000010976 0.26014242576773 0.020919999936173
21 25 2 0.83333333333333 0.0081979999780489 0.010206000010976 0.26014242576773 0.020919999936173
21 26 2 0.83333333333333 0.0081979999780489 -0.026417999978049 0.30005468824211 0.069194303392389
22 24 2 0.83333333333333 0.0081979999780489 0.010206000010976 0.26014242576773 0.020919999936173
22 25 2 0.83333333333333 0.0081979999780489 0.010206000010976 0.26014242576773 0.020919999936173
22 26 2 0.83333333333333 0.0081979999780489 -0.026417999978049 0.30005468824211 0.069194303392389
23 30 2 0.83333333333333 -0.017093000005488 0.0095950000274389 0.30005468824211 0.069194303392389
23 31 2 0.83333333333333 -0.017093000005488 0.0095950000274389 0.30005468824211 0.069194303392389
23 32 2 0.83333333333333 -0.017093000005488 -0.014623000005488 0.33996695084507 0.076288266607901
24 27 2 0.83333333333333 0.010206000010976 0.010824999972561 0.26014242576773 0.020919999936173
24 28 2 0.83333333333333 0.010206000010976 0.010824999972561 0.26014242576773 0.020919999936173
24 29 2 0.83333333333333 0.010206000010976 -0.017996999994512 0.30005468824211 0.069194303392389
25 27 2 0.83333333333333 0.010206000010976 0.010824999972561 0.26014242576773 0.020919999936173
25 28 2 0.83333333333333 0.010206000010976 0.010824999972561 0.26014242576773 0.020919999936173
25 29 2 0.83333333333333 0.010206000010976 -0.017996999994512 0.30005468824211 0.069194303392389
26 33 2 0.83333333333333 -0.026417999978049 0.0073260000109756 0.30005468824211 0.069194303392389
26 34 2 0.83333333333333 -0.026417999978049 0.0073260000109756 0.30005468824211 0.069194303392389
26 35 2 0.83333333333333 -0.026417999978049 -0.019469000016463 0.33996695084507 0.076288266607901
27 30 2 0.83333333333333 0.010824999972561 0.0095950000274389 0.26014242576773 0.020919999936173
27 31 2 0.83333333333333 0.010824999972561 0.0095950000274389 0.26014242576773 0.020919999936173
27 32 2 0.83333333333333 0.010824999972561 -0.014623000005488 0.30005468824211 0.069194303392389
28 30 2 0.83333333333333 0.010824999972561 0.0095950000274389 0.26014242576773 0.020919999936173
28 31 2 0.83333333333333 0.010824999972561 0.0095950000274389 0.26014242576773 0.020919999936173
28 32 2 0.83333333333333 0.010824999972561 -0.014623000005488 0.30005468824211 0.069194303392389
29 36 2 0.83333333333333 -0.017996999994512 0.0092920000219511 0.30005468824211 0.069194303392389
29 37 2 0.83333333333333 -0.017996999994512 0.0092920000219511 0.30005468824211 0.069194303392389
29 38 2 0.83333333333333 -0.017996999994512 -0.037626999994512 0.33996695084507 0.076288266607901
30 33 2 0.83333333333333 0.0095950000274389 0.0073260000109756 0.26014242576773 0.020919999936173
30 34 2 0.83333333333333 0.0095950000274389 0.0073260000109756 0.26014242576773 0.020919999936173
30 35 2 0.83333333333333 0.0095950000274389 -0.019469000016463 0.30005468824211 0.069194303392389
31 33 2 0.83333333333333 0.0095950000274389 0.0073260000109756 0.26014242576773 0.020919999936173
31 34 2 0.83333333333333 0.0095950000274389 0.0073260000109756 0.26014242576773 0.020919999936173
31 35 2 0.83333333333333 0.0095950000274389 -0.019469000016463 0.30005468824211 0.069194303392389
32 39 2 0.83333333333333 -0.014623000005488 0.01774 0.30005468824211 0.069194303392389
32 40 2 0.83333333333333 -0.014623000005488 0.01774 0.30005468824211 0.069194303392389
32 41 2 0.83333333333333 -0.014623000005488 -0.013443000005488 0.33996695084507 0.076288266607901
33 36 2 0.83333333333333 0.0073260000109756 0.0092920000219511 0.26014242576773 0.020919999936173
33 37 2 0.83333333333333 0.0073260000109756 0.0092920000219511 0.26014242576773 0.020919999936173
33 38 2 0.83333333333333 0.0073260000109756 -0.037626999994512 0.30005468824211 0.069194303392389
34 36 2 0.83333333333333 0.0073260000109756 0.0092920000219511 0.26014242576773 0.020919999936173
34 37 2 0.83333333333333 0.0073260000109756 0.0092920000219511 0.26014242576773 0.020919999936173
34 38 2 0.83333333333333 0.0073260000109756 -0.037626999994512 0.30005468824211 0.069194303392389
35 42 2 0.83333333333333 -0.019469000016463 0.0081909999835367 0.30005468824211 0.069194303392389
35 43 2 0.83333333333333 -0.019469000016463 0.0081909999835367 0.30005468824211 0.069194303392389
35 44 2 0.83333333333333 -0.019469000016463 -0.059791999912195 0.33996695084507 0.076288266607901
36 39 2 0.83333333333333 0.0092920000219511 0.01774 0.26014242576773 0.020919999936173
36 40 2 0.83333333333333 0.0092920000219511 0.01774 0.26014242576773 0.020919999936173
36 41 2 0.83333333333333 0.0092920000219511 -0.013443000005488 0.30005468824211 0.069194303392389
37 39 2 0.83333333333333 0.0092920000219511 0.01774 0.26014242576773 0.020919999936173
37 40 2 0.83333333333333 0.0092920000219511 0.01774 0.26014242576773 0.020919999936173
37 41 2 0.83333333333333 0.0092920000219511 -0.013443000005488 0.30005468824211 0.069194303392389
38 45 2 0.83333333333333 -0.037626999994512 0.024240999983537 0.30005468824211 0.069194303392389
38 46 2 0.83333333333333 -0.037626999994512 0.024240999983537 0.30005468824211 0.069194303392389
38 47 2 0.83333333333333 -0.037626999994512 -0.000128 0.33996695084507 0.076288266607901
39 42 2 0.83333333333333 0.01774 0.0081909999835367 0.26014242576773 0.020919999936173
39 43 2 0.83333333333333 0.01774 0.0081909999835367 0.26014242576773 0.020919999936173
39 44 2 0.83333333333333 0.01774 -0.059791999912195 0.30005468824211 0.069194303392389
40 42 2 0.83333333333333 0.01774 0.0081909999835367 0.26014242576773 0.020919999936173
40 43 2 0.83333333333333 0.01774 0.0081909999835367 0.26014242576773 0.020919999936173
40 44 2 0.83333333333333 0.01774 -0.059791999912195 0.30005468824211 0.069194303392389
41 48 2 0.83333333333333 -0.013443000005488 0.013886000010976 0.30005468824211 0.069194303392389
41 49 2 0.83333333333333 -0.013443000005488 0.013886000010976 0.30005468824211 0.069194303392389
41 50 2 0.83333333333333 -0.013443000005488 -0.11702000021951 0.33996695084507 0.076288266607901
42 45 2 0.83333333333333 0.0081909999835367 0.024240999983537 0.26014242576773 0.020919999936173
42 46 2 0.83333333333333 0.0081909999835367 0.024240999983537 0.26014242576773 0.020919999936173
42 47 2 0.83333333333333 0.0081909999835367 -0.000128 0.30005468824211 0.069194303392389
43 45 2 0.83333333333333 0.0081909999835367 0.024240999983537 0.26014242576773 0.020919999936173
43 46 2 0.83333333333333 0.0081909999835367 0.024240999983537 0.26014242576773 0.020919999936173
43 47 2 0.83333333333333 0.0081909999835367 -0.000128 0.30005468824211 0.069194303392389
44 51 2 0.83333333333333 -0.059791999912195 0.051806999994512 0.30005468824211 0.069194303392389
44 52 2 0.83333333333333 -0.059791999912195 0.051806999994512 0.30005468824211 0.069194303392389
44 53 2 0.83333333333333 -0.059791999912195 0.8883589996872 0.33996695087407 0.20291752963184
45 48 2 0.83333333333333 0.024240999983537 0.013886000010976 0.26014242576773 0.020919999936173
45 49 2 0.83333333333333 0.024240999983537 0.013886000010976 0.26014242576773 0.020919999936173
45 50 2 0.83333333333333 0.024240999983537 -0.11702000021951 0.30005468824211 0.069194303392389
46 48 2 0.83333333333333 0.024240999983537 0.013886000010976 0.26014242576773 0.020919999936173
46 49 2 0.83333333333333 0.024240999983537 0.013886000010976 0.26014242576773 0.020919999936173
46 50 2 0.83333333333333 0.024240999983537 -0.11702000021951 0.30005468824211 0.069194303392389
47 54 2 0.83333333333333 -0.000128 -0.65080200084512 0.31797957047595 0.31708813257529
47 55 2 0.83333333333333 -0.000128 -0.59382599891342 0.31998409262799 0.28529542121767
48 51 2 0.83333333333333 0.013886000010976 0.051806999994512 0.26014242576773 0.020919999936173
48 52 2 0.83333333333333 0.013886000010976 0.051806999994512 0.26014242576773 0.020919999936173
48 53 2 0.83333333333333 0.013886000010976 0.8883589996872 0.30005468825729 0.061349482798597
49 51 2 0.83333333333333 0.013886000010976 0.051806999994512 0.26014242576773 0.020919999936173
49 52 2 0.83333333333333 0.013886000010976 0.051806999994512 0.26014242576773 0.020919999936173
49 53 2 0.83333333333333 0.013886000010976 0.8883589996872 0.30005468825729 0.061349482798597
50 56 2 0.83333333333333 -0.11702000021951 0.27377599973659 0.33996695084507 0.2288647998237
51 54 2 0.83333333333333 0.051806999994512 -0.65080200084512 0.27806730790153 0.095867483596702
51 55 2 0.83333333333333 0.051806999994512 -0.59382599891342 0.2800718300513 0.086255369632554
52 54 2 0.83333333333333 0.051806999994512 -0.65080200084512 0.27806730790153 0.095867483596702
52 55 2 0.83333333333333 0.051806999994512 -0.59382599891342 0.2800718300513 0.086255369632554
53 57 2 0.83333333333333 0.8883589996872 0.044573999989024 0.29355112761526 0.076870681673027
53 58 2 0.83333333333333 0.8883589996872 0.044573999989024 0.29355112761526 0.076870681673027
53 59 2 0.83333333333333 0.8883589996872 0.3390040000439 0.33996695087407 0.20291752963184
54 56 2 0.83333333333333 -0.65080200084512 0.27377599973659 0.31797957047595 0.31708813257529
55 60 2 0.83333333333333 -0.59382599891342 0.032843000005488 0.27356826939641 0.10807766839674
55 61 2 0.83333333333333 -0.59382599891342 0.040966999994512 0.31998409262799 0.28529542121767
55 79 2 0.83333333333333 -0.59382599891342 -0.57547999978049 0.30000123432245 0.35564000022068
56 62 2 0.83333333333333 0.27377599973659 0.090994000208536 0.29355112776543 0.086700213146672
56 63 2 0.83333333333333 0.27377599973659 0.090994000208536 0.29355112776543 0.086700213146672
56 64 2 0.83333333333333 0.27377599973659 -0.54662299984085 0.31998409262799 0.28529542121767
56 80 2 0.83333333333333 0.27377599973659 0.8693400009878 0.33996695087407 0.20291752963184
57 60 2 0.83333333333333 0.044573999989024 0.032843000005488 0.24713530426422 0.032844400205981
57 61 2 0.83333333333333 0.044573999989024 0.040966999994512 0.29355112776543 0.086700213146672
57 79 2 0.83333333333333 0.044573999989024 -0.57547999978049 0.27356826939641 0.10807766839674
58 60 2 0.83333333333333 0.044573999989024 0.032843000005488 0.24713530426422 0.032844400205981
58 61 2 0.83333333333333 0.044573999989024 0.040966999994512 0.29355112776543 0.086700213146672
58 79 2 0.83333333333333 0.044573999989024 -0.57547999978049 0.27356826939641 0.10807766839674
59 65 2 0.83333333333333 0.3390040000439 1.3736559984195 0.35707220617836 0.30944633210394
59 81 2 0.83333333333333 0.3390040000439 -0.64919899793111 0.31797957047595 0.31708813257529
59 116 2 0.83333333333333 0.3390040000439 -0.12393499997256 0.33996695084507 0.2288647998237
60 62 2 0.83333333333333 0.032843000005488 0.090994000208536 0.24713530426422 0.032844400205981
60 63 2 0.83333333333333 0.032843000005488 0.090994000208536 0.24713530426422 0.032844400205981
60 64 2 0.83333333333333 0.032843000005488 -0.54662299984085 0.27356826939641 0.10807766839674
60 80 2 0.83333333333333 0.032843000005488 0.8693400009878 0.29355112761526 0.076870681673027
61 66 2 0.83333333333333 0.040966999994512 -0.51454200018658 0.31998409262799 0.28529542121767
61 77 2 0.83333333333333 0.040966999994512 -0.8774470017506 0.31797957047595 0.31708813257529
61 78 2 0.83333333333333 0.040966999994512 -0.8774470017506 0.31797957047595 0.31708813257529
61 80 2 0.83333333333333 0.040966999994512 0.8693400009878 0.33996695087407 0.20291752963184
62 65 2 0.83333333333333 0.090994000208536 1.3736559984195 0.31065638299277 0.11722669057481
62 79 2 0.83333333333333 0.090994000208536 -0.57547999978049 0.27356826939641 0.10807766839674
63 65 2 0.83333333333333 0.090994000208536 1.3736559984195 0.31065638299277 0.11722669057481
63 79 2 0.83333333333333 0.090994000208536 -0.57547999978049 0.27356826939641 0.10807766839674
64 67 2 0.83333333333333 -0.54662299984085 0.075159000235975 0.31998409262799 0.28529542121767
64 79 2 0.83333333333333 -0.54662299984085 -0.57547999978049 0.30000123432245 0.35564000022068
65 68 2 0.83333333333333 1.3736559984195 0.091516000175609 0.31065638299277 0.11722669057481
65 69 2 0.83333333333333 1.3736559984195 0.091516000175609 0.31065638299277 0.11722669057481
65 70 2 0.83333333333333 1.3736559984195 0.077318999796952 0.35707220617836 0.30944633210394
66 71 2 0.83333333333333 -0.51454200018658 0.091630000054878 0.24799947608237 0.10807766872372
66 72 2 0.83333333333333 -0.51454200018658 0.091630000054878 0.24799947608237 0.10807766872372
66 73 2 0.83333333333333 -0.51454200018658 -0.36813199980244 0.31250054330942 0.35564000053052
67 74 2 0.83333333333333 0.075159000235975 0.34854899985183 0.22343739849812 0.086700213704004
67 75 2 0.83333333333333 0.075159000235975 0.34854899985183 0.22343739849812 0.086700213704004
67 76 2 0.83333333333333 0.075159000235975 0.34854899985183 0.22343739849812 0.086700213704004
67 77 2 0.83333333333333 0.075159000235975 -0.8774470017506 0.31797957047595 0.31708813257529
67 78 2 0.83333333333333 0.075159000235975 -0.8774470017506 0.31797957047595 0.31708813257529
68 71 2 0.83333333333333 0.091516000175609 0.091630000054878 0.22156651118302 0.032844400019638
68 72 2 0.83333333333333 0.091516000175609 0.091630000054878 0.22156651118302 0.032844400019638
68 73 2 0.83333333333333 0.091516000175609 -0.36813199980244 0.2860675785499 0.10807766765337
69 71 2 0.83333333333333 0.091516000175609 0.091630000054878 0.22156651118302 0.032844400019638
69 72 2 0.83333333333333 0.091516000175609 0.091630000054878 0.22156651118302 0.032844400019638
69 73 2 0.83333333333333 0.091516000175609 -0.36813199980244 0.2860675785499 0.10807766765337
71 74 2 0.83333333333333 0.091630000054878 0.34854899985183 0.1514527820581 0.032844400050852
71 75 2 0.83333333333333 0.091630000054878 0.34854899985183 0.1514527820581 0.032844400050852
71 76 2 0.83333333333333 0.091630000054878 0.34854899985183 0.1514527820581 0.032844400050852
72 74 2 0.83333333333333 0.091630000054878 0.34854899985183 0.1514527820581 0.032844400050852
72 75 2 0.83333333333333 0.091630000054878 0.34854899985183 0.1514527820581 0.032844400050852
72 76 2 0.83333333333333 0.091630000054878 0.34854899985183 0.1514527820581 0.032844400050852
79 113 2 0.83333333333333 -0.57547999978049 0.025626000010976 0.31998409262799 0.28529542121767
79 117 2 0.83333333333333 -0.57547999978049 0.024535000027439 0.2800718300513 0.086255369632554
79 118 2 0.83333333333333 -0.57547999978049 0.024535000027439 0.2800718300513 0.086255369632554
80 110 2 0.83333333333333 0.8693400009878 0.031382000021951 0.33996695087407 0.20291752963184
80 114 2 0.83333333333333 0.8693400009878 0.025116999994512 0.30005468825729 0.061349482798597
80 115 2 0.83333333333333 0.8693400009878 0.025116999994512 0.30005468825729 0.061349482798597
81 113 2 0.83333333333333 -0.64919899793111 0.025626000010976 0.31797957047595 0.31708813257529
81 117 2 0.83333333333333 -0.64919899793111 0.024535000027439 0.27806730790153 0.095867483596702
81 118 2 0.83333333333333 -0.64919899793111 0.024535000027439 0.27806730790153 0.095867483596702
82 88 2 0.83333333333333 0.0391 0.12961600017561 0.28134581515096 0.057892107742859
82 89 2 0.83333333333333 0.0391 0.058196999829879 0.33996695084507 0.2288647998237
82 123 2 0.83333333333333 0.0391 0.014217999978049 0.30005468824211 0.069194303392389
82 124 2 0.83333333333333 0.0391 0.014217999978049 0.30005468824211 0.069194303392389
82 125 2 0.83333333333333 0.0391 0.024956999994512 0.33996695084507 0.076288266607901
83 86 2 0.83333333333333 0.028847999978049 0.13279299978598 0.24143355271439 0.017502927720476
83 87 2 0.83333333333333 0.028847999978049 -0.22476900007134 0.30005468825729 0.061349482798597
83 120 2 0.83333333333333 0.028847999978049 0.019580999983537 0.26014242576773 0.020919999936173
83 121 2 0.83333333333333 0.028847999978049 0.019580999983537 0.26014242576773 0.020919999936173
83 122 2 0.83333333333333 0.028847999978049 -0.019772000021951 0.30005468824211 0.069194303392389
84 86 2 0.83333333333333 0.028847999978049 0.13279299978598 0.24143355271439 0.017502927720476
84 87 2 0.83333333333333 0.028847999978049 -0.22476900007134 0.30005468825729 0.061349482798597
84 120 2 0.83333333333333 0.028847999978049 0.019580999983537 0.26014242576773 0.020919999936173
84 121 2 0.83333333333333 0.028847999978049 0.019580999983537 0.26014242576773 0.020919999936173
84 122 2 0.83333333333333 0.028847999978049 -0.019772000021951 0.30005468824211 0.069194303392389
85 90 2 0.83333333333333 -0.24414899985183 0.061350000274389 0.30005468825729 0.061349482798597
85 91 2 0.83333333333333 -0.24414899985183 0.061350000274389 0.30005468825729 0.061349482798597
85 92 2 0.83333333333333 -0.24414899985183 -0.22016400015366 0.33996695079448 0.17991200026853
85 120 2 0.83333333333333 -0.24414899985183 0.019580999983537 0.30005468825729 0.061349482798597
85 121 2 0.83333333333333 -0.24414899985183 0.019580999983537 0.30005468825729 0.061349482798597
85 122 2 0.83333333333333 -0.24414899985183 -0.019772000021951 0.33996695087407 0.20291752963184
86 88 2 0.83333333333333 0.13279299978598 0.12961600017561 0.22272467949703 0.014644000015013
86 89 2 0.83333333333333 0.13279299978598 0.058196999829879 0.28134581515096 0.057892107742859
86 119 2 0.83333333333333 0.13279299978598 -0.028397999978049 0.28134581515096 0.057892107742859
87 93 2 0.83333333333333 -0.22476900007134 0.13198600012073 0.28134581517665 0.051328659869652
87 94 2 0.83333333333333 -0.22476900007134 -0.2287040000439 0.33996695079448 0.17991200026853
87 119 2 0.83333333333333 -0.22476900007134 -0.028397999978049 0.33996695087407 0.20291752963184
88 90 2 0.83333333333333 0.12961600017561 0.061350000274389 0.24143355271439 0.017502927720476
88 91 2 0.83333333333333 0.12961600017561 0.061350000274389 0.24143355271439 0.017502927720476
88 92 2 0.83333333333333 0.12961600017561 -0.22016400015366 0.28134581517665 0.051328659869652
89 95 2 0.83333333333333 0.058196999829879 0.13134099976403 0.28134581515096 0.057892107742859
89 96 2 0.83333333333333 0.058196999829879 0.095405999791464 0.33996695084507 0.2288647998237
90 93 2 0.83333333333333 0.061350000274389 0.13198600012073 0.24143355271439 0.017502927720476
90 94 2 0.83333333333333 0.061350000274389 -0.2287040000439 0.30005468825729 0.061349482798597
91 93 2 0.83333333333333 0.061350000274389 0.13198600012073 0.24143355271439 0.017502927720476
91 94 2 0.83333333333333 0.061350000274389 -0.2287040000439 0.30005468825729 0.061349482798597
92 97 2 0.83333333333333 -0.22016400015366 0.05114 0.30005468825729 0.061349482798597
92 98 2 0.83333333333333 -0.22016400015366 0.05114 0.30005468825729 0.061349482798597
92 99 2 0.83333333333333 -0.22016400015366 -0.22869400020854 0.33996695079448 0.17991200026853
93 95 2 0.83333333333333 0.13198600012073 0.13134099976403 0.22272467949703 0.014644000015013
93 96 2 0.83333333333333 0.13198600012073 0.095405999791464 0.28134581515096 0.057892107742859
94 100 2 0.83333333333333 -0.2287040000439 0.132166999775 0.28134581517665 0.051328659869652
94 101 2 0.83333333333333 -0.2287040000439 -0.22852699988476 0.33996695079448 0.17991200026853
95 97 2 0.83333333333333 0.13134099976403 0.05114 0.24143355271439 0.017502927720476
95 98 2 0.83333333333333 0.13134099976403 0.05114 0.24143355271439 0.017502927720476
95 99 2 0.83333333333333 0.13134099976403 -0.22869400020854 0.28134581517665 0.051328659869652
96 102 2 0.83333333333333 0.095405999791464 0.13473499997256 0.28134581515096 0.057892107742859
96 103 2 0.83333333333333 0.095405999791464 0.055783999824391 0.33996695084507 0.2288647998237
97 100 2 0.83333333333333 0.05114 0.132166999775 0.24143355271439 0.017502927720476
97 101 2 0.83333333333333 0.05114 -0.22852699988476 0.30005468825729 0.061349482798597
98 100 2 0.83333333333333 0.05114 0.132166999775 0.24143355271439 0.017502927720476
98 101 2 0.83333333333333 0.05114 -0.22852699988476 0.30005468825729 0.061349482798597
99 104 2 0.83333333333333 -0.22869400020854 0.062774999862805 0.30005468825729 0.061349482798597
99 105 2 0.83333333333333 -0.22869400020854 0.062774999862805 0.30005468825729 0.061349482798597
99 106 2 0.83333333333333 -0.22869400020854 -0.20678600012073 0.33996695079448 0.17991200026853
100 102 2 0.83333333333333 0.132166999775 0.13473499997256 0.22272467949703 0.014644000015013
100 103 2 0.83333333333333 0.132166999775 0.055783999824391 0.28134581515096 0.057892107742859
101 107 2 0.83333333333333 -0.22852699988476 0.12985799981342 0.28134581517665 0.051328659869652
101 108 2 0.83333333333333 -0.22852699988476 -0.26789000016463 0.33996695079448 0.17991200026853
102 104 2 0.83333333333333 0.13473499997256 0.062774999862805 0.24143355271439 0.017502927720476
102 105 2 0.83333333333333 0.13473499997256 0.062774999862805 0.24143355271439 0.017502927720476
102 106 2 0.83333333333333 0.13473499997256 -0.20678600012073 0.28134581517665 0.051328659869652
103 109 2 0.83333333333333 0.055783999824391 0.14357700015915 0.28134581515096 0.057892107742859
103 110 2 0.83333333333333 0.055783999824391 0.031382000021951 0.33996695084507 0.2288647998237
104 107 2 0.83333333333333 0.062774999862805 0.12985799981342 0.24143355271439 0.017502927720476
104 108 2 0.83333333333333 0.062774999862805 -0.26789000016463 0.30005468825729 0.061349482798597
105 107 2 0.83333333333333 0.062774999862805 0.12985799981342 0.24143355271439 0.017502927720476
105 108 2 0.83333333333333 0.062774999862805 -0.26789000016463 0.30005468825729 0.061349482798597
106 111 2 0.83333333333333 -0.20678600012073 0.038707999978049 0.30005468825729 0.061349482798597
106 112 2 0.83333333333333 -0.20678600012073 0.038707999978049 0.30005468825729 0.061349482798597
106 113 2 0.83333333333333 -0.20678600012073 0.025626000010976 0.33996695087407 0.20291752963184
107 109 2 0.83333333333333 0.12985799981342 0.14357700015915 0.22272467949703 0.014644000015013
107 110 2 0.83333333333333 0.12985799981342 0.031382000021951 0.28134581515096 0.057892107742859
108 114 2 0.83333333333333 -0.26789000016463 0.025116999994512 0.30005468825729 0.061349482798597
108 115 2 0.83333333333333 -0.26789000016463 0.025116999994512 0.30005468825729 0.061349482798597
108 116 2 0.83333333333333 -0.26789000016463 -0.12393499997256 0.33996695087407 0.20291752963184
109 111 2 0.83333333333333 0.14357700015915 0.038707999978049 0.24143355271439 0.017502927720476
109 112 2 0.83333333333333 0.14357700015915 0.038707999978049 0.24143355271439 0.017502927720476
109 113 2 0.83333333333333 0.14357700015915 0.025626000010976 0.28134581515096 0.057892107742859
110 117 2 0.83333333333333 0.031382000021951 0.024535000027439 0.30005468824211 0.069194303392389
110 118 2 0.83333333333333 0.031382000021951 0.024535000027439 0.30005468824211 0.069194303392389
111 114 2 0.83333333333333 0.038707999978049 0.025116999994512 0.26014242576773 0.020919999936173
111 115 2 0.83333333333333 0.038707999978049 0.025116999994512 0.26014242576773 0.020919999936173
111 116 2 0.83333333333333 0.038707999978049 -0.12393499997256 0.30005468824211 0.069194303392389
112 114 2 0.83333333333333 0.038707999978049 0.025116999994512 0.26014242576773 0.020919999936173
112 115 2 0.83333333333333 0.038707999978049 0.025116999994512 0.26014242576773 0.020919999936173
112 116 2 0.83333333333333 0.038707999978049 -0.12393499997256 0.30005468824211 0.069194303392389
114 117 2 0.83333333333333 0.025116999994512 0.024535000027439 0.26014242576773 0.020919999936173
114 118 2 0.83333333333333 0.025116999994512 0.024535000027439 0.26014242576773 0.020919999936173
115 117 2 0.83333333333333 0.025116999994512 0.024535000027439 0.26014242576773 0.020919999936173
115 118 2 0.83333333333333 0.025116999994512 0.024535000027439 0.26014242576773 0.020919999936173
119 126 2 0.83333333333333 -0.028397999978049 0.005426 0.30005468824211 0.069194303392389
119 127 2 0.83333333333333 -0.028397999978049 0.005426 0.30005468824211 0.069194303392389
119 128 2 0.83333333333333 -0.028397999978049 -0.10930199974756 0.33996695084507 0.076288266607901
120 123 2 0.83333333333333 0.019580999983537 0.014217999978049 0.26014242576773 0.020919999936173
120 124 2 0.83333333333333 0.019580999983537 0.014217999978049 0.26014242576773 0.020919999936173
120 125 2 0.83333333333333 0.019580999983537 0.024956999994512 0.30005468824211 0.069194303392389
121 123 2 0.83333333333333 0.019580999983537 0.014217999978049 0.26014242576773 0.020919999936173
121 124 2 0.83333333333333 0.019580999983537 0.014217999978049 0.26014242576773 0.020919999936173
121 125 2 0.83333333333333 0.019580999983537 0.024956999994512 0.30005468824211 0.069194303392389
122 129 2 0.83333333333333 -0.019772000021951 0.023723000005488 0.30005468824211 0.069194303392389
122 130 2 0.83333333333333 -0.019772000021951 0.023723000005488 0.30005468824211 0.069194303392389
122 131 2 0.83333333333333 -0.019772000021951 0.023723000005488 0.30005468824211 0.069194303392389
123 126 2 0.83333333333333 0.014217999978049 0.005426 0.26014242576773 0.020919999936173
123 127 2 0.83333333333333 0.014217999978049 0.005426 0.26014242576773 0.020919999936173
123 128 2 0.83333333333333 0.014217999978049 -0.10930199974756 0.30005468824211 0.069194303392389
124 126 2 0.83333333333333 0.014217999978049 0.005426 0.26014242576773 0.020919999936173
124 127 2 0.83333333333333 0.014217999978049 0.005426 0.26014242576773 0.020919999936173
124 128 2 0.83333333333333 0.014217999978049 -0.10930199974756 0.30005468824211 0.069194303392389
126 129 2 0.83333333333333 0.005426 0.023723000005488 0.26014242576773 0.020919999936173
126 130 2 0.83333333333333 0.005426 0.023723000005488 0.26014242576773 0.020919999936173
126 131 2 0.83333333333333 0.005426 0.023723000005488 0.26014242576773 0.020919999936173
127 129 2 0.83333333333333 0.005426 0.023723000005488 0.26014242576773 0.020919999936173
127 130 2 0.83333333333333 0.005426 0.023723000005488 0.26014242576773 0.020919999936173
127 131 2 0.83333333333333 0.005426 0.023723000005488 0.26014242576773 0.020919999936173

[ angles ]
;    ai     aj     ak funct         c0         c1         c2         c3
     50     53     54     1   123.1100526 569.275040
     50     53     55     1   111.9600481 579.567680
     47     50     53     1   110.5300474 533.794720
     44     47     50     1   112.0500483 394.969600
     41     44     47     1   112.0500483 394.969600
     38     41     44     1   112.0500483 394.969600
     35     38     41     1   112.0500483 394.969600
     32     35     38     1   112.0500483 394.969600
     29     32     35     1   112.0500483 394.969600
     26     29     32     1   112.0500483 394.969600
     23     26     29     1   112.0500483 394.969600
     20     23     26     1   112.0500483 394.969600
     17     20     23     1   112.0500483 394.969600
     14     17     20     1   112.0500483 394.969600
     11     14     17     1   112.0500483 394.969600
      8     11     14     1   112.0500483 394.969600
      5      8     11     1   112.0500483 394.969600
      1      5      8     1   112.0500483 394.969600
     81     80    116     1   123.1100526 569.275040
     80    116    113     1   110.5300474 533.794720
     79     80     81     1   123.3300529 635.382240
     79     80    116     1   111.9600481 579.567680
     77     65     78     1   119.9000514 1171.520000
     67     70     73     1   114.3200492 539.317600
     66     65     77     1   108.2300464 836.800000
     66     65     78     1   108.2300464 836.800000
     66     67     70     1   108.4200467 567.183040
     65     66     67     1   120.5000516 836.800000
     64     65     66     1   102.6000440 753.120000
     64     65     77     1   108.2300464 836.800000
     64     65     78     1   108.2300464 836.800000
     61     59     79     1   108.4200467 567.183040
     61     64     65     1   120.5000516 836.800000
     59     61     64     1   108.4200467 567.183040
     59     79     80     1   115.1400492 532.455840
     56     59     61     1   110.6300475 528.941280
     56     59     79     1   108.4200467 567.183040
     55     56     59     1   108.4200467 567.183040
     54     53     55     1   123.3300529 635.382240
     53     55     56     1   115.1400492 532.455840
    122    125    128     1   112.0500483 394.969600
    119    122    125     1   112.0500483 394.969600
    110    113    116     1   112.0500483 394.969600
    108    110    113     1   111.4400476 531.619040
    106    108    110     1   123.4200531 538.313440
    103    106    108     1   123.4200531 538.313440
    101    103    106     1   112.0800478 534.966240
     99    101    103     1   123.4200531 538.313440
     96     99    101     1   123.4200531 538.313440
     94     96     99     1   112.0800478 534.966240
     92     94     96     1   123.4200531 538.313440
     89     92     94     1   123.4200531 538.313440
     87     89     92     1   112.0800478 534.966240
     85     82    119     1   111.4400476 531.619040
     85     87     89     1   123.4200531 538.313440
     82     85     87     1   123.4200531 538.313440
     82    119    122     1   112.0500483 394.969600
     52     50     53     1   109.6800468 394.969600
     51     50     52     1   108.3500467 329.950240
     51     50     53     1   109.6800468 394.969600
     49     47     50     1   110.0500475 388.024160
     48     47     50     1   110.0500475 388.024160
     48     47     49     1   108.3500467 329.950240
     47     50     51     1   110.0500475 388.024160
     47     50     52     1   110.0500475 388.024160
     46     44     47     1   110.0500475 388.024160
     45     44     47     1   110.0500475 388.024160
     45     44     46     1   108.3500467 329.950240
     44     47     49     1   110.0500475 388.024160
     44     47     48     1   110.0500475 388.024160
     43     41     44     1   110.0500475 388.024160
     42     41     44     1   110.0500475 388.024160
     42     41     43     1   108.3500467 329.950240
     41     44     45     1   110.0500475 388.024160
     41     44     46     1   110.0500475 388.024160
     40     38     41     1   110.0500475 388.024160
     39     38     41     1   110.0500475 388.024160
     39     38     40     1   108.3500467 329.950240
     38     41     43     1   110.0500475 388.024160
     38     41     42     1   110.0500475 388.024160
     37     35     38     1   110.0500475 388.024160
     36     35     38     1   110.0500475 388.024160
     36     35     37     1   108.3500467 329.950240
     35     38     39     1   110.0500475 388.024160
     35     38     40     1   110.0500475 388.024160
     34     32     35     1   110.0500475 388.024160
     33     32     35     1   110.0500475 388.024160
     33     32     34     1   108.3500467 329.950240
     32     35     37     1   110.0500475 388.024160
     32     35     36     1   110.0500475 388.024160
     31     29     32     1   110.0500475 388.024160
     30     29     32     1   110.0500475 388.024160
     30     29     31     1   108.3500467 329.950240
     29     32     33     1   110.0500475 388.024160
     29     32     34     1   110.0500475 388.024160
     28     26     29     1   110.0500475 388.024160
     27     26     29     1   110.0500475 388.024160
     27     26     28     1   108.3500467 329.950240
     26     29     31     1   110.0500475 388.024160
     26     29     30     1   110.0500475 388.024160
     25     23     26     1   110.0500475 388.024160
     24     23     26     1   110.0500475 388.024160
     24     23     25     1   108.3500467 329.950240
     23     26     27     1   110.0500475 388.024160
     23     26     28     1   110.0500475 388.024160
     22     20     23     1   110.0500475 388.024160
     21     20     23     1   110.0500475 388.024160
     21     20     22     1   108.3500467 329.950240
     20     23     25     1   110.0500475 388.024160
     20     23     24     1   110.0500475 388.024160
     19     17     20     1   110.0500475 388.024160
     18     17     20     1   110.0500475 388.024160
     18     17     19     1   108.3500467 329.950240
     17     20     21     1   110.0500475 388.024160
     17     20     22     1   110.0500475 388.024160
     16     14     17     1   110.0500475 388.024160
     15     14     17     1   110.0500475 388.024160
     15     14     16     1   108.3500467 329.950240
     14     17     19     1   110.0500475 388.024160
     14     17     18     1   110.0500475 388.024160
     13     11     14     1   110.0500475 388.024160
     12     11     14     1   110.0500475 388.024160
     12     11     13     1   108.3500467 329.950240
     11     14     15     1   110.0500475 388.024160
     11     14     16     1   110.0500475 388.024160
     10      8     11     1   110.0500475 388.024160
      9      8     11     1   110.0500475 388.024160
      9      8     10     1   108.3500467 329.950240
      8     11     13     1   110.0500475 388.024160
      8     11     12     1   110.0500475 388.024160
      7      5      8     1   110.0500475 388.024160
      6      5      8     1   110.0500475 388.024160
      6      5      7     1   108.3500467 329.950240
      5      8      9     1   110.0500475 388.024160
      5      8     10     1   110.0500475 388.024160
      4      1      5     1   110.0500475 388.024160
      3      1      5     1   110.0500475 388.024160
      3      1      4     1   108.3500467 329.950240
      2      1      5     1   110.0500475 388.024160
      2      1      4     1   108.3500467 329.950240
      2      1      3     1   108.3500467 329.950240
      1      5      7     1   110.0500475 388.024160
      1      5      6     1   110.0500475 388.024160
     80    116    117     1   109.6800468 394.969600
     80    116    118     1   109.6800468 394.969600
     75     73     76     1   108.1100462 339.071360
     74     73     75     1   108.1100462 339.071360
     74     73     76     1   108.1100462 339.071360
     72     70     73     1   107.9100461 410.199360
     71     70     72     1   110.7400473 326.686720
     71     70     73     1   107.9100461 410.199360
     70     73     74     1   110.1100470 386.517920
     70     73     75     1   110.1100470 386.517920
     70     73     76     1   110.1100470 386.517920
     69     67     70     1   110.0700471 387.940480
     68     67     69     1   109.5500472 327.858240
     68     67     70     1   110.0700471 387.940480
     67     70     71     1   111.7400478 385.095360
     67     70     72     1   111.7400478 385.095360
     66     67     68     1   108.8200469 425.429120
     66     67     69     1   108.8200469 425.429120
     63     61     64     1   108.8200469 425.429120
     62     61     63     1   109.5500472 327.858240
     62     61     64     1   108.8200469 425.429120
     60     59     61     1   110.0700471 387.940480
     60     59     79     1   108.8200469 425.429120
     59     61     62     1   110.0700471 387.940480
     59     61     63     1   110.0700471 387.940480
     58     56     59     1   110.0700471 387.940480
     57     56     58     1   109.5500472 327.858240
     57     56     59     1   110.0700471 387.940480
     56     59     60     1   110.0700471 387.940480
     55     56     57     1   108.8200469 425.429120
     55     56     58     1   108.8200469 425.429120
    130    128    131     1   108.3500467 329.950240
    129    128    130     1   108.3500467 329.950240
    129    128    131     1   108.3500467 329.950240
    127    125    128     1   110.0500475 388.024160
    126    125    127     1   108.3500467 329.950240
    126    125    128     1   110.0500475 388.024160
    125    128    129     1   110.0500475 388.024160
    125    128    130     1   110.0500475 388.024160
    125    128    131     1   110.0500475 388.024160
    124    122    125     1   110.0500475 388.024160
    123    122    124     1   108.3500467 329.950240
    123    122    125     1   110.0500475 388.024160
    122    125    126     1   110.0500475 388.024160
    122    125    127     1   110.0500475 388.024160
    121    119    122     1   110.0500475 388.024160
    120    119    121     1   108.3500467 329.950240
    120    119    122     1   110.0500475 388.024160
    119    122    123     1   110.0500475 388.024160
    119    122    124     1   110.0500475 388.024160
    117    116    118     1   108.3500467 329.950240
    115    113    116     1   110.0500475 388.024160
    114    113    115     1   108.3500467 329.950240
    114    113    116     1   110.0500475 388.024160
    113    116    117     1   110.0500475 388.024160
    113    116    118     1   110.0500475 388.024160
    112    110    113     1   110.0500475 388.024160
    111    110    112     1   108.3500467 329.950240
    111    110    113     1   110.0500475 388.024160
    110    113    114     1   110.0500475 388.024160
    110    113    115     1   110.0500475 388.024160
    109    108    110     1   117.3000503 382.082880
    108    110    111     1   110.4900475 393.547040
    108    110    112     1   110.4900475 393.547040
    107    106    108     1   120.9400517 418.734720
    106    108    109     1   120.9400517 418.734720
    105    103    106     1   110.4900475 393.547040
    104    103    105     1   108.3500467 329.950240
    104    103    106     1   110.4900475 393.547040
    103    106    107     1   117.3000503 382.082880
    102    101    103     1   117.3000503 382.082880
    101    103    104     1   110.4900475 393.547040
    101    103    105     1   110.4900475 393.547040
    100     99    101     1   120.9400517 418.734720
     99    101    102     1   120.9400517 418.734720
     98     96     99     1   110.4900475 393.547040
     97     96     98     1   108.3500467 329.950240
     97     96     99     1   110.4900475 393.547040
     96     99    100     1   117.3000503 382.082880
     95     94     96     1   117.3000503 382.082880
     94     96     97     1   110.4900475 393.547040
     94     96     98     1   110.4900475 393.547040
     93     92     94     1   120.9400517 418.734720
     92     94     95     1   120.9400517 418.734720
     91     89     92     1   110.4900475 393.547040
     90     89     91     1   108.3500467 329.950240
     90     89     92     1   110.4900475 393.547040
     89     92     93     1   117.3000503 382.082880
     88     87     89     1   117.3000503 382.082880
     87     89     90     1   110.4900475 393.547040
     87     89     91     1   110.4900475 393.547040
     86     85     87     1   120.9400517 418.734720
     85     87     88     1   120.9400517 418.734720
     84     82     85     1   110.4900475 393.547040
     84     82    119     1   110.0500475 388.024160
     83     82     84     1   108.3500467 329.950240
     83     82     85     1   110.4900475 393.547040
     83     82    119     1   110.0500475 388.024160
     82     85     86     1   117.3000503 382.082880
     82    119    120     1   110.0500475 388.024160
     82    119    121     1   110.0500475 388.024160


[ dihedrals ]
;    ai     aj     ak     al funct         c0         c1         c2         c3         c4         c5
     50     53     55     56     1  180.0000771  11.2968000  2
     47     50     53     54     1  180.0000771  0.0000000  2
     47     50     53     55     1  180.0000771  0.0000000  2
     44     47     50     53     1  0.0000000  0.6527040  3
     41     44     47     50     1  0.0000000  0.4184000  1
     41     44     47     50     1  0.0000000  0.4184000  2
     41     44     47     50     1  0.0000000  1.2552000  3
     41     44     47     50     1  0.0000000  0.4184000  4
     41     44     47     50     1  0.0000000  0.4184000  5
     38     41     44     47     1  0.0000000  0.4184000  1
     38     41     44     47     1  0.0000000  0.4184000  2
     38     41     44     47     1  0.0000000  1.2552000  3
     38     41     44     47     1  0.0000000  0.4184000  4
     38     41     44     47     1  0.0000000  0.4184000  5
     35     38     41     44     1  0.0000000  0.4184000  1
     35     38     41     44     1  0.0000000  0.4184000  2
     35     38     41     44     1  0.0000000  1.2552000  3
     35     38     41     44     1  0.0000000  0.4184000  4
     35     38     41     44     1  0.0000000  0.4184000  5
     32     35     38     41     1  0.0000000  0.4184000  1
     32     35     38     41     1  0.0000000  0.4184000  2
     32     35     38     41     1  0.0000000  1.2552000  3
     32     35     38     41     1  0.0000000  0.4184000  4
     32     35     38     41     1  0.0000000  0.4184000  5
     29     32     35     38     1  0.0000000  0.4184000  1
     29     32     35     38     1  0.0000000  0.4184000  2
     29     32     35     38     1  0.0000000  1.2552000  3
     29     32     35     38     1  0.0000000  0.4184000  4
     29     32     35     38     1  0.0000000  0.4184000  5
     26     29     32     35     1  0.0000000  0.4184000  1
     26     29     32     35     1  0.0000000  0.4184000  2
     26     29     32     35     1  0.0000000  1.2552000  3
     26     29     32     35     1  0.0000000  0.4184000  4
     26     29     32     35     1  0.0000000  0.4184000  5
     23     26     29     32     1  0.0000000  0.4184000  1
     23     26     29     32     1  0.0000000  0.4184000  2
     23     26     29     32     1  0.0000000  1.2552000  3
     23     26     29     32     1  0.0000000  0.4184000  4
     23     26     29     32     1  0.0000000  0.4184000  5
     20     23     26     29     1  0.0000000  0.4184000  1
     20     23     26     29     1  0.0000000  0.4184000  2
     20     23     26     29     1  0.0000000  1.2552000  3
     20     23     26     29     1  0.0000000  0.4184000  4
     20     23     26     29     1  0.0000000  0.4184000  5
     17     20     23     26     1  0.0000000  0.4184000  1
     17     20     23     26     1  0.0000000  0.4184000  2
     17     20     23     26     1  0.0000000  1.2552000  3
     17     20     23     26     1  0.0000000  0.4184000  4
     17     20     23     26     1  0.0000000  0.4184000  5
     14     17     20     23     1  0.0000000  0.4184000  1
     14     17     20     23     1  0.0000000  0.4184000  2
     14     17     20     23     1  0.0000000  1.2552000  3
     14     17     20     23     1  0.0000000  0.4184000  4
     14     17     20     23     1  0.0000000  0.4184000  5
     11     14     17     20     1  0.0000000  0.4184000  1
     11     14     17     20     1  0.0000000  0.4184000  2
     11     14     17     20     1  0.0000000  1.2552000  3
     11     14     17     20     1  0.0000000  0.4184000  4
     11     14     17     20     1  0.0000000  0.4184000  5
      8     11     14     17     1  0.0000000  0.4184000  1
      8     11     14     17     1  0.0000000  0.4184000  2
      8     11     14     17     1  0.0000000  1.2552000  3
      8     11     14     17     1  0.0000000  0.4184000  4
      8     11     14     17     1  0.0000000  0.4184000  5
      5      8     11     14     1  0.0000000  0.4184000  1
      5      8     11     14     1  0.0000000  0.4184000  2
      5      8     11     14     1  0.0000000  1.2552000  3
      5      8     11     14     1  0.0000000  0.4184000  4
      5      8     11     14     1  0.0000000  0.4184000  5
      1      5      8     11     1  0.0000000  0.4184000  1
      1      5      8     11     1  0.0000000  0.4184000  2
      1      5      8     11     1  0.0000000  1.2552000  3
      1      5      8     11     1  0.0000000  0.4184000  4
      1      5      8     11     1  0.0000000  0.4184000  5
     81     80    116    113     1  180.0000771  0.0000000  2
     80    116    113    110     1  0.0000000  0.6527040  3
     79     80    116    113     1  180.0000771  0.0000000  2
     67     66     65     77     1  0.0000000  0.0000000  1
     67     66     65     77     1  0.0000000  0.8368000  2
     67     66     65     77     1  0.0000000  0.0000000  3
     67     66     65     77     1  0.0000000  0.0000000  4
     67     66     65     77     1  0.0000000  0.0000000  5
     67     66     65     78     1  0.0000000  0.0000000  1
     67     66     65     78     1  0.0000000  0.8368000  2
     67     66     65     78     1  0.0000000  0.0000000  3
     67     66     65     78     1  0.0000000  0.0000000  4
     67     66     65     78     1  0.0000000  0.0000000  5
     66     67     70     73     1  0.0000000  4.1840000  3
     65     66     67     70     1  180.0000771  -3.3472000  2
     65     66     67     70     1  0.0000000  0.0000000  3
     64     61     59     79     1  0.0000000  0.0000000  1
     64     61     59     79     1  0.0000000  0.0000000  2
     64     61     59     79     1  0.0000000  0.0000000  3
     64     61     59     79     1  0.0000000  0.0000000  4
     64     61     59     79     1  0.0000000  0.0000000  5
     64     65     66     67     1  0.0000000  9.6232000  2
     64     65     66     67     1  0.0000000  2.5104000  3
     61     59     79     80     1  0.0000000  -0.4184000  1
     61     59     79     80     1  240.0001029  -1.2552000  2
     61     59     79     80     1  300.0001286  -0.8368000  3
     61     64     65     66     1  0.0000000  9.6232000  2
     61     64     65     66     1  0.0000000  2.5104000  3
     61     64     65     77     1  0.0000000  0.0000000  1
     61     64     65     77     1  0.0000000  0.8368000  2
     61     64     65     77     1  0.0000000  0.0000000  3
     61     64     65     77     1  0.0000000  0.0000000  4
     61     64     65     77     1  0.0000000  0.0000000  5
     61     64     65     78     1  0.0000000  0.0000000  1
     61     64     65     78     1  0.0000000  0.8368000  2
     61     64     65     78     1  0.0000000  0.0000000  3
     61     64     65     78     1  0.0000000  0.0000000  4
     61     64     65     78     1  0.0000000  0.0000000  5
     59     61     64     65     1  180.0000771  -3.3472000  2
     59     61     64     65     1  0.0000000  0.0000000  3
     59     79     80     81     1  180.0000771  5.8576000  1
     59     79     80     81     1  180.0000771  11.2968000  2
     59     79     80    116     1  180.0000771  11.2968000  2
     56     59     61     64     1  180.0000771  3.3472000  1
     56     59     61     64     1  120.0000514  0.8368000  2
     56     59     61     64     1  60.0000257  1.6736000  3
     56     59     79     80     1  0.0000000  -0.4184000  1
     56     59     79     80     1  240.0001029  -1.2552000  2
     56     59     79     80     1  300.0001286  -0.8368000  3
     55     56     59     61     1  0.0000000  0.0000000  1
     55     56     59     61     1  0.0000000  0.0000000  2
     55     56     59     61     1  0.0000000  0.0000000  3
     55     56     59     61     1  0.0000000  0.0000000  4
     55     56     59     61     1  0.0000000  0.0000000  5
     55     56     59     79     1  180.0000771  -0.4184000  1
     55     56     59     79     1  0.0000000  1.2552000  2
     55     56     59     79     1  0.0000000  4.1840000  3
     54     53     55     56     1  180.0000771  5.8576000  1
     54     53     55     56     1  180.0000771  11.2968000  2
     53     55     56     59     1  0.0000000  -0.4184000  1
     53     55     56     59     1  240.0001029  -1.2552000  2
     53     55     56     59     1  300.0001286  -0.8368000  3
    119    122    125    128     1  0.0000000  0.4184000  1
    119    122    125    128     1  0.0000000  0.4184000  2
    119    122    125    128     1  0.0000000  1.2552000  3
    119    122    125    128     1  0.0000000  0.4184000  4
    119    122    125    128     1  0.0000000  0.4184000  5
    108    110    113    116     1  0.0000000  0.0000000  1
    108    110    113    116     1  0.0000000  0.0000000  2
    108    110    113    116     1  0.0000000  2.0920000  3
    108    110    113    116     1  0.0000000  0.0000000  4
    108    110    113    116     1  0.0000000  0.4184000  5
    106    108    110    113     1  0.0000000  2.5104000  1
    106    108    110    113     1  180.0000771  1.6736000  2
    106    108    110    113     1  180.0000771  1.6736000  3
    106    108    110    113     1  180.0000771  0.8368000  4
    106    108    110    113     1  180.0000771  0.8368000  5
    103    106    108    110     1  180.0000771  7.1128000  1
    103    106    108    110     1  180.0000771  13.8072000  2
    103    106    108    110     1  0.0000000  2.5104000  3
    103    106    108    110     1  0.0000000  0.0000000  4
    103    106    108    110     1  0.0000000  0.0000000  5
    101    103    106    108     1  0.0000000  0.0000000  1
    101    103    106    108     1  0.0000000  0.0000000  2
    101    103    106    108     1  0.0000000  0.0000000  3
    101    103    106    108     1  0.0000000  0.0000000  4
    101    103    106    108     1  0.0000000  0.0000000  5
     99    101    103    106     1  0.0000000  0.0000000  1
     99    101    103    106     1  0.0000000  0.0000000  2
     99    101    103    106     1  0.0000000  0.0000000  3
     99    101    103    106     1  0.0000000  0.0000000  4
     99    101    103    106     1  0.0000000  0.0000000  5
     96     99    101    103     1  180.0000771  7.1128000  1
     96     99    101    103     1  180.0000771  13.8072000  2
     96     99    101    103     1  0.0000000  2.5104000  3
     96     99    101    103     1  0.0000000  0.0000000  4
     96     99    101    103     1  0.0000000  0.0000000  5
     94     96     99    101     1  0.0000000  0.0000000  1
     94     96     99    101     1  0.0000000  0.0000000  2
     94     96     99    101     1  0.0000000  0.0000000  3
     94     96     99    101     1  0.0000000  0.0000000  4
     94     96     99    101     1  0.0000000  0.0000000  5
     92     94     96     99     1  0.0000000  0.0000000  1
     92     94     96     99     1  0.0000000  0.0000000  2
     92     94     96     99     1  0.0000000  0.0000000  3
     92     94     96     99     1  0.0000000  0.0000000  4
     92     94     96     99     1  0.0000000  0.0000000  5
     89     92     94     96     1  180.0000771  7.1128000  1
     89     92     94     96     1  180.0000771  13.8072000  2
     89     92     94     96     1  0.0000000  2.5104000  3
     89     92     94     96     1  0.0000000  0.0000000  4
     89     92     94     96     1  0.0000000  0.0000000  5
     87     85     82    119     1  0.0000000  2.5104000  1
     87     85     82    119     1  180.0000771  1.6736000  2
     87     85     82    119     1  180.0000771  1.6736000  3
     87     85     82    119     1  180.0000771  0.8368000  4
     87     85     82    119     1  180.0000771  0.8368000  5
     87     89     92     94     1  0.0000000  0.0000000  1
     87     89     92     94     1  0.0000000  0.0000000  2
     87     89     92     94     1  0.0000000  0.0000000  3
     87     89     92     94     1  0.0000000  0.0000000  4
     87     89     92     94     1  0.0000000  0.0000000  5
     85     82    119    122     1  0.0000000  0.0000000  1
     85     82    119    122     1  0.0000000  0.0000000  2
     85     82    119    122     1  0.0000000  2.0920000  3
     85     82    119    122     1  0.0000000  0.0000000  4
     85     82    119    122     1  0.0000000  0.4184000  5
     85     87     89     92     1  0.0000000  0.0000000  1
     85     87     89     92     1  0.0000000  0.0000000  2
     85     87     89     92     1  0.0000000  0.0000000  3
     85     87     89     92     1  0.0000000  0.0000000  4
     85     87     89     92     1  0.0000000  0.0000000  5
     82     85     87     89     1  180.0000771  7.1128000  1
     82     85     87     89     1  180.0000771  13.8072000  2
     82     85     87     89     1  0.0000000  2.5104000  3
     82     85     87     89     1  0.0000000  0.0000000  4
     82     85     87     89     1  0.0000000  0.0000000  5
     82    119    122    125     1  0.0000000  0.4184000  1
     82    119    122    125     1  0.0000000  0.4184000  2
     82    119    122    125     1  0.0000000  1.2552000  3
     82    119    122    125     1  0.0000000  0.4184000  4
     82    119    122    125     1  0.0000000  0.4184000  5
    116     81     80     79     4  180.0000771  43.9320000  2
     50     54     53     55     4  180.0000771  43.9320000  2
     52     50     53     54     1  0.0000000  3.3472000  1
     52     50     53     54     1  180.0000771  0.3347200  3
     52     50     53     55     1  180.0000771  0.0000000  2
     51     50     53     54     1  0.0000000  3.3472000  1
     51     50     53     54     1  180.0000771  0.3347200  3
     51     50     53     55     1  180.0000771  0.0000000  2
     49     47     50     51     1  0.0000000  0.6276000  3
     49     47     50     52     1  0.0000000  0.6276000  3
     49     47     50     53     1  0.0000000  0.6527040  3
     48     47     50     51     1  0.0000000  0.6276000  3
     48     47     50     52     1  0.0000000  0.6276000  3
     48     47     50     53     1  0.0000000  0.6527040  3
     46     44     47     50     1  0.0000000  0.6694400  3
     46     44     47     49     1  0.0000000  0.6276000  3
     46     44     47     48     1  0.0000000  0.6276000  3
     45     44     47     50     1  0.0000000  0.6694400  3
     45     44     47     49     1  0.0000000  0.6276000  3
     45     44     47     48     1  0.0000000  0.6276000  3
     44     47     50     51     1  0.0000000  0.6694400  3
     44     47     50     52     1  0.0000000  0.6694400  3
     43     41     44     47     1  0.0000000  0.6694400  3
     43     41     44     45     1  0.0000000  0.6276000  3
     43     41     44     46     1  0.0000000  0.6276000  3
     42     41     44     47     1  0.0000000  0.6694400  3
     42     41     44     45     1  0.0000000  0.6276000  3
     42     41     44     46     1  0.0000000  0.6276000  3
     41     44     47     49     1  0.0000000  0.6694400  3
     41     44     47     48     1  0.0000000  0.6694400  3
     40     38     41     44     1  0.0000000  0.6694400  3
     40     38     41     43     1  0.0000000  0.6276000  3
     40     38     41     42     1  0.0000000  0.6276000  3
     39     38     41     44     1  0.0000000  0.6694400  3
     39     38     41     43     1  0.0000000  0.6276000  3
     39     38     41     42     1  0.0000000  0.6276000  3
     38     41     44     45     1  0.0000000  0.6694400  3
     38     41     44     46     1  0.0000000  0.6694400  3
     37     35     38     41     1  0.0000000  0.6694400  3
     37     35     38     39     1  0.0000000  0.6276000  3
     37     35     38     40     1  0.0000000  0.6276000  3
     36     35     38     41     1  0.0000000  0.6694400  3
     36     35     38     39     1  0.0000000  0.6276000  3
     36     35     38     40     1  0.0000000  0.6276000  3
     35     38     41     43     1  0.0000000  0.6694400  3
     35     38     41     42     1  0.0000000  0.6694400  3
     34     32     35     38     1  0.0000000  0.6694400  3
     34     32     35     37     1  0.0000000  0.6276000  3
     34     32     35     36     1  0.0000000  0.6276000  3
     33     32     35     38     1  0.0000000  0.6694400  3
     33     32     35     37     1  0.0000000  0.6276000  3
     33     32     35     36     1  0.0000000  0.6276000  3
     32     35     38     39     1  0.0000000  0.6694400  3
     32     35     38     40     1  0.0000000  0.6694400  3
     31     29     32     35     1  0.0000000  0.6694400  3
     31     29     32     33     1  0.0000000  0.6276000  3
     31     29     32     34     1  0.0000000  0.6276000  3
     30     29     32     35     1  0.0000000  0.6694400  3
     30     29     32     33     1  0.0000000  0.6276000  3
     30     29     32     34     1  0.0000000  0.6276000  3
     29     32     35     37     1  0.0000000  0.6694400  3
     29     32     35     36     1  0.0000000  0.6694400  3
     28     26     29     32     1  0.0000000  0.6694400  3
     28     26     29     31     1  0.0000000  0.6276000  3
     28     26     29     30     1  0.0000000  0.6276000  3
     27     26     29     32     1  0.0000000  0.6694400  3
     27     26     29     31     1  0.0000000  0.6276000  3
     27     26     29     30     1  0.0000000  0.6276000  3
     26     29     32     33     1  0.0000000  0.6694400  3
     26     29     32     34     1  0.0000000  0.6694400  3
     25     23     26     29     1  0.0000000  0.6694400  3
     25     23     26     27     1  0.0000000  0.6276000  3
     25     23     26     28     1  0.0000000  0.6276000  3
     24     23     26     29     1  0.0000000  0.6694400  3
     24     23     26     27     1  0.0000000  0.6276000  3
     24     23     26     28     1  0.0000000  0.6276000  3
     23     26     29     31     1  0.0000000  0.6694400  3
     23     26     29     30     1  0.0000000  0.6694400  3
     22     20     23     26     1  0.0000000  0.6694400  3
     22     20     23     25     1  0.0000000  0.6276000  3
     22     20     23     24     1  0.0000000  0.6276000  3
     21     20     23     26     1  0.0000000  0.6694400  3
     21     20     23     25     1  0.0000000  0.6276000  3
     21     20     23     24     1  0.0000000  0.6276000  3
     20     23     26     27     1  0.0000000  0.6694400  3
     20     23     26     28     1  0.0000000  0.6694400  3
     19     17     20     23     1  0.0000000  0.6694400  3
     19     17     20     21     1  0.0000000  0.6276000  3
     19     17     20     22     1  0.0000000  0.6276000  3
     18     17     20     23     1  0.0000000  0.6694400  3
     18     17     20     21     1  0.0000000  0.6276000  3
     18     17     20     22     1  0.0000000  0.6276000  3
     17     20     23     25     1  0.0000000  0.6694400  3
     17     20     23     24     1  0.0000000  0.6694400  3
     16     14     17     20     1  0.0000000  0.6694400  3
     16     14     17     19     1  0.0000000  0.6276000  3
     16     14     17     18     1  0.0000000  0.6276000  3
     15     14     17     20     1  0.0000000  0.6694400  3
     15     14     17     19     1  0.0000000  0.6276000  3
     15     14     17     18     1  0.0000000  0.6276000  3
     14     17     20     21     1  0.0000000  0.6694400  3
     14     17     20     22     1  0.0000000  0.6694400  3
     13     11     14     17     1  0.0000000  0.6694400  3
     13     11     14     15     1  0.0000000  0.6276000  3
     13     11     14     16     1  0.0000000  0.6276000  3
     12     11     14     17     1  0.0000000  0.6694400  3
     12     11     14     15     1  0.0000000  0.6276000  3
     12     11     14     16     1  0.0000000  0.6276000  3
     11     14     17     19     1  0.0000000  0.6694400  3
     11     14     17     18     1  0.0000000  0.6694400  3
     10      8     11     14     1  0.0000000  0.6694400  3
     10      8     11     13     1  0.0000000  0.6276000  3
     10      8     11     12     1  0.0000000  0.6276000  3
      9      8     11     14     1  0.0000000  0.6694400  3
      9      8     11     13     1  0.0000000  0.6276000  3
      9      8     11     12     1  0.0000000  0.6276000  3
      8     11     14     15     1  0.0000000  0.6694400  3
      8     11     14     16     1  0.0000000  0.6694400  3
      7      5      8     11     1  0.0000000  0.6694400  3
      7      5      8      9     1  0.0000000  0.6276000  3
      7      5      8     10     1  0.0000000  0.6276000  3
      6      5      8     11     1  0.0000000  0.6694400  3
      6      5      8      9     1  0.0000000  0.6276000  3
      6      5      8     10     1  0.0000000  0.6276000  3
      5      8     11     13     1  0.0000000  0.6694400  3
      5      8     11     12     1  0.0000000  0.6694400  3
      4      1      5      8     1  0.0000000  0.6694400  3
      4      1      5      7     1  0.0000000  0.6276000  3
      4      1      5      6     1  0.0000000  0.6276000  3
      3      1      5      8     1  0.0000000  0.6694400  3
      3      1      5      7     1  0.0000000  0.6276000  3
      3      1      5      6     1  0.0000000  0.6276000  3
      2      1      5      8     1  0.0000000  0.6694400  3
      2      1      5      7     1  0.0000000  0.6276000  3
      2      1      5      6     1  0.0000000  0.6276000  3
      1      5      8      9     1  0.0000000  0.6694400  3
      1      5      8     10     1  0.0000000  0.6694400  3
     81     80    116    117     1  0.0000000  3.3472000  1
     81     80    116    117     1  180.0000771  0.3347200  3
     81     80    116    118     1  0.0000000  3.3472000  1
     81     80    116    118     1  180.0000771  0.3347200  3
     80    116    113    114     1  0.0000000  0.6527040  3
     80    116    113    115     1  0.0000000  0.6527040  3
     79     80    116    117     1  180.0000771  0.0000000  2
     79     80    116    118     1  180.0000771  0.0000000  2
     72     70     73     74     1  0.0000000  0.6510304  3
     72     70     73     75     1  0.0000000  0.6510304  3
     72     70     73     76     1  0.0000000  0.6510304  3
     71     70     73     74     1  0.0000000  0.6510304  3
     71     70     73     75     1  0.0000000  0.6510304  3
     71     70     73     76     1  0.0000000  0.6510304  3
     69     67     70     71     1  0.0000000  0.6527040  3
     69     67     70     72     1  0.0000000  0.6527040  3
     69     67     70     73     1  0.0000000  0.6527040  3
     68     67     70     71     1  0.0000000  0.6527040  3
     68     67     70     72     1  0.0000000  0.6527040  3
     68     67     70     73     1  0.0000000  0.6527040  3
     67     70     73     74     1  0.0000000  0.6510304  3
     67     70     73     75     1  0.0000000  0.6510304  3
     67     70     73     76     1  0.0000000  0.6510304  3
     66     67     70     71     1  0.0000000  0.6527040  3
     66     67     70     72     1  0.0000000  0.6527040  3
     65     66     67     68     1  0.0000000  0.0000000  1
     65     66     67     68     1  0.0000000  0.0000000  2
     65     66     67     68     1  0.0000000  1.6024720  3
     65     66     67     68     1  0.0000000  0.0000000  4
     65     66     67     68     1  0.0000000  0.0000000  5
     65     66     67     69     1  0.0000000  0.0000000  1
     65     66     67     69     1  0.0000000  0.0000000  2
     65     66     67     69     1  0.0000000  1.6024720  3
     65     66     67     69     1  0.0000000  0.0000000  4
     65     66     67     69     1  0.0000000  0.0000000  5
     63     61     59     79     1  0.0000000  1.0460000  1
     63     61     59     79     1  0.0000000  0.0000000  3
     63     61     64     65     1  0.0000000  0.0000000  1
     63     61     64     65     1  0.0000000  0.0000000  2
     63     61     64     65     1  0.0000000  1.6024720  3
     63     61     64     65     1  0.0000000  0.0000000  4
     63     61     64     65     1  0.0000000  0.0000000  5
     62     61     59     79     1  0.0000000  1.0460000  1
     62     61     59     79     1  0.0000000  0.0000000  3
     62     61     64     65     1  0.0000000  0.0000000  1
     62     61     64     65     1  0.0000000  0.0000000  2
     62     61     64     65     1  0.0000000  1.6024720  3
     62     61     64     65     1  0.0000000  0.0000000  4
     62     61     64     65     1  0.0000000  0.0000000  5
     60     59     61     62     1  0.0000000  0.6527040  3
     60     59     61     63     1  0.0000000  0.6527040  3
     60     59     61     64     1  0.0000000  1.0460000  1
     60     59     61     64     1  0.0000000  0.0000000  3
     60     59     79     80     1  0.0000000  1.6024720  3
     58     56     59     60     1  0.0000000  0.6527040  3
     58     56     59     61     1  0.0000000  0.6527040  3
     58     56     59     79     1  0.0000000  1.0460000  1
     58     56     59     79     1  0.0000000  0.0000000  3
     57     56     59     60     1  0.0000000  0.6527040  3
     57     56     59     61     1  0.0000000  0.6527040  3
     57     56     59     79     1  0.0000000  1.0460000  1
     57     56     59     79     1  0.0000000  0.0000000  3
     56     59     61     62     1  0.0000000  0.6527040  3
     56     59     61     63     1  0.0000000  0.6527040  3
     55     56     59     60     1  0.0000000  1.0460000  1
     55     56     59     60     1  0.0000000  0.0000000  3
     53     55     56     57     1  0.0000000  1.6024720  3
     53     55     56     58     1  0.0000000  1.6024720  3
    127    125    128    129     1  0.0000000  0.6276000  3
    127    125    128    130     1  0.0000000  0.6276000  3
    127    125    128    131     1  0.0000000  0.6276000  3
    126    125    128    129     1  0.0000000  0.6276000  3
    126    125    128    130     1  0.0000000  0.6276000  3
    126    125    128    131     1  0.0000000  0.6276000  3
    124    122    125    126     1  0.0000000  0.6276000  3
    124    122    125    127     1  0.0000000  0.6276000  3
    124    122    125    128     1  0.0000000  0.6694400  3
    123    122    125    126     1  0.0000000  0.6276000  3
    123    122    125    127     1  0.0000000  0.6276000  3
    123    122    125    128     1  0.0000000  0.6694400  3
    122    125    128    129     1  0.0000000  0.6694400  3
    122    125    128    130     1  0.0000000  0.6694400  3
    122    125    128    131     1  0.0000000  0.6694400  3
    121    119    122    123     1  0.0000000  0.6276000  3
    121    119    122    124     1  0.0000000  0.6276000  3
    121    119    122    125     1  0.0000000  0.6694400  3
    120    119    122    123     1  0.0000000  0.6276000  3
    120    119    122    124     1  0.0000000  0.6276000  3
    120    119    122    125     1  0.0000000  0.6694400  3
    119    122    125    126     1  0.0000000  0.6694400  3
    119    122    125    127     1  0.0000000  0.6694400  3
    115    113    116    117     1  0.0000000  0.6276000  3
    115    113    116    118     1  0.0000000  0.6276000  3
    114    113    116    117     1  0.0000000  0.6276000  3
    114    113    116    118     1  0.0000000  0.6276000  3
    112    110    113    114     1  0.0000000  0.6276000  3
    112    110    113    115     1  0.0000000  0.6276000  3
    112    110    113    116     1  0.0000000  0.6694400  3
    111    110    113    114     1  0.0000000  0.6276000  3
    111    110    113    115     1  0.0000000  0.6276000  3
    111    110    113    116     1  0.0000000  0.6694400  3
    110    113    116    117     1  0.0000000  0.6694400  3
    110    113    116    118     1  0.0000000  0.6694400  3
    109    108    110    111     1  0.0000000  0.0000000  2
    109    108    110    112     1  0.0000000  0.0000000  2
    109    108    110    113     1  0.0000000  0.0000000  2
    108    110    113    114     1  0.0000000  0.6510304  3
    108    110    113    115     1  0.0000000  0.6510304  3
    107    106    108    109     1  180.0000771  27.8236000  2
    107    106    108    110     1  180.0000771  27.8236000  2
    106    108    110    111     1  0.0000000  4.8116000  1
    106    108    110    111     1  180.0000771  1.5899200  3
    106    108    110    112     1  0.0000000  4.8116000  1
    106    108    110    112     1  180.0000771  1.5899200  3
    105    103    106    107     1  0.0000000  0.0000000  2
    105    103    106    108     1  0.0000000  4.8116000  1
    105    103    106    108     1  180.0000771  1.5899200  3
    104    103    106    107     1  0.0000000  0.0000000  2
    104    103    106    108     1  0.0000000  4.8116000  1
    104    103    106    108     1  180.0000771  1.5899200  3
    103    106    108    109     1  180.0000771  27.8236000  2
    102    101    103    104     1  0.0000000  0.0000000  2
    102    101    103    105     1  0.0000000  0.0000000  2
    102    101    103    106     1  0.0000000  0.0000000  2
    101    103    106    107     1  0.0000000  0.0000000  2
    100     99    101    102     1  180.0000771  27.8236000  2
    100     99    101    103     1  180.0000771  27.8236000  2
     99    101    103    104     1  0.0000000  4.8116000  1
     99    101    103    104     1  180.0000771  1.5899200  3
     99    101    103    105     1  0.0000000  4.8116000  1
     99    101    103    105     1  180.0000771  1.5899200  3
     98     96     99    100     1  0.0000000  0.0000000  2
     98     96     99    101     1  0.0000000  4.8116000  1
     98     96     99    101     1  180.0000771  1.5899200  3
     97     96     99    100     1  0.0000000  0.0000000  2
     97     96     99    101     1  0.0000000  4.8116000  1
     97     96     99    101     1  180.0000771  1.5899200  3
     96     99    101    102     1  180.0000771  27.8236000  2
     95     94     96     97     1  0.0000000  0.0000000  2
     95     94     96     98     1  0.0000000  0.0000000  2
     95     94     96     99     1  0.0000000  0.0000000  2
     94     96     99    100     1  0.0000000  0.0000000  2
     93     92     94     95     1  180.0000771  27.8236000  2
     93     92     94     96     1  180.0000771  27.8236000  2
     92     94     96     97     1  0.0000000  4.8116000  1
     92     94     96     97     1  180.0000771  1.5899200  3
     92     94     96     98     1  0.0000000  4.8116000  1
     92     94     96     98     1  180.0000771  1.5899200  3
     91     89     92     93     1  0.0000000  0.0000000  2
     91     89     92     94     1  0.0000000  4.8116000  1
     91     89     92     94     1  180.0000771  1.5899200  3
     90     89     92     93     1  0.0000000  0.0000000  2
     90     89     92     94     1  0.0000000  4.8116000  1
     90     89     92     94     1  180.0000771  1.5899200  3
     89     92     94     95     1  180.0000771  27.8236000  2
     88     87     89     90     1  0.0000000  0.0000000  2
     88     87     89     91     1  0.0000000  0.0000000  2
     88     87     89     92     1  0.0000000  0.0000000  2
     87     89     92     93     1  0.0000000  0.0000000  2
     86     85     82    119     1  0.0000000  0.0000000  2
     86     85     87     88     1  180.0000771  27.8236000  2
     86     85     87     89     1  180.0000771  27.8236000  2
     85     82    119    120     1  0.0000000  0.6510304  3
     85     82    119    121     1  0.0000000  0.6510304  3
     85     87     89     90     1  0.0000000  4.8116000  1
     85     87     89     90     1  180.0000771  1.5899200  3
     85     87     89     91     1  0.0000000  4.8116000  1
     85     87     89     91     1  180.0000771  1.5899200  3
     84     82     85     86     1  0.0000000  0.0000000  2
     84     82     85     87     1  0.0000000  4.8116000  1
     84     82     85     87     1  180.0000771  1.5899200  3
     84     82    119    120     1  0.0000000  0.6276000  3
     84     82    119    121     1  0.0000000  0.6276000  3
     84     82    119    122     1  0.0000000  0.6694400  3
     83     82     85     86     1  0.0000000  0.0000000  2
     83     82     85     87     1  0.0000000  4.8116000  1
     83     82     85     87     1  180.0000771  1.5899200  3
     83     82    119    120     1  0.0000000  0.6276000  3
     83     82    119    121     1  0.0000000  0.6276000  3
     83     82    119    122     1  0.0000000  0.6694400  3
     82     85     87     88     1  180.0000771  27.8236000  2
     82    119    122    123     1  0.0000000  0.6694400  3
     82    119    122    124     1  0.0000000  0.6694400  3
    106    110    108    109     4  180.0000771  4.6024000  2
    108    103    106    107     4  180.0000771  4.6024000  2
     99    103    101    102     4  180.0000771  4.6024000  2
    101     96     99    100     4  180.0000771  4.6024000  2
     92     96     94     95     4  180.0000771  4.6024000  2
     94     89     92     93     4  180.0000771  4.6024000  2
     85     89     87     88     4  180.0000771  4.6024000  2
     87     82     85     86     4  180.0000771  4.6024000  2
