; Exact Amber Lipid21 v1.0 topology converted by ParmEd
; Explicit [pairs] preserve Lipid21-specific 1-4 scaling.
; Conversion contract: amber-explicit-pairs-v2 (independent of parent defaults).

[ moleculetype ]
; Name nrexcl
SAPS 3

[ atoms ]
; nr type resnr residue atom cgnr charge mass
1 L21_cD 1 SAPS C18X 1 -0.12006900 12.010000
2 L21_hL 1 SAPS H18X 2 0.02793800 1.008000
3 L21_hL 1 SAPS H18Y 3 0.02793800 1.008000
4 L21_hL 1 SAPS H18Z 4 0.02793800 1.008000
5 L21_cD 1 SAPS C17X 5 0.02066500 12.010000
6 L21_hL 1 SAPS H17X 6 0.00848300 1.008000
7 L21_hL 1 SAPS H17Y 7 0.00848300 1.008000
8 L21_cD 1 SAPS C16X 8 -0.02765400 12.010000
9 L21_hL 1 SAPS H16X 9 0.01562700 1.008000
10 L21_hL 1 SAPS H16Y 10 0.01562700 1.008000
11 L21_cD 1 SAPS C15X 11 -0.03244400 12.010000
12 L21_hL 1 SAPS H15X 12 0.01025300 1.008000
13 L21_hL 1 SAPS H15Y 13 0.01025300 1.008000
14 L21_cD 1 SAPS C14X 14 -0.01348900 12.010000
15 L21_hL 1 SAPS H14X 15 0.01007300 1.008000
16 L21_hL 1 SAPS H14Y 16 0.01007300 1.008000
17 L21_cD 1 SAPS C13X 17 -0.01159000 12.010000
18 L21_hL 1 SAPS H13X 18 0.00602200 1.008000
19 L21_hL 1 SAPS H13Y 19 0.00602200 1.008000
20 L21_cD 1 SAPS C12X 20 -0.01915300 12.010000
21 L21_hL 1 SAPS H12X 21 0.00819800 1.008000
22 L21_hL 1 SAPS H12Y 22 0.00819800 1.008000
23 L21_cD 1 SAPS C11X 23 -0.01709300 12.010000
24 L21_hL 1 SAPS H11X 24 0.01020600 1.008000
25 L21_hL 1 SAPS H11Y 25 0.01020600 1.008000
26 L21_cD 1 SAPS C10X 26 -0.02641800 12.010000
27 L21_hL 1 SAPS H10X 27 0.01082500 1.008000
28 L21_hL 1 SAPS H10Y 28 0.01082500 1.008000
29 L21_cD 1 SAPS C9X 29 -0.01799700 12.010000
30 L21_hL 1 SAPS H9X 30 0.00959500 1.008000
31 L21_hL 1 SAPS H9Y 31 0.00959500 1.008000
32 L21_cD 1 SAPS C8X 32 -0.01462300 12.010000
33 L21_hL 1 SAPS H8X 33 0.00732600 1.008000
34 L21_hL 1 SAPS H8Y 34 0.00732600 1.008000
35 L21_cD 1 SAPS C7X 35 -0.01946900 12.010000
36 L21_hL 1 SAPS H7X 36 0.00929200 1.008000
37 L21_hL 1 SAPS H7Y 37 0.00929200 1.008000
38 L21_cD 1 SAPS C6X 38 -0.03762700 12.010000
39 L21_hL 1 SAPS H6X 39 0.01774000 1.008000
40 L21_hL 1 SAPS H6Y 40 0.01774000 1.008000
41 L21_cD 1 SAPS C5X 41 -0.01344300 12.010000
42 L21_hL 1 SAPS H5X 42 0.00819100 1.008000
43 L21_hL 1 SAPS H5Y 43 0.00819100 1.008000
44 L21_cD 1 SAPS C4X 44 -0.05979200 12.010000
45 L21_hL 1 SAPS H4X 45 0.02424100 1.008000
46 L21_hL 1 SAPS H4Y 46 0.02424100 1.008000
47 L21_cD 1 SAPS C3X 47 -0.00012800 12.010000
48 L21_hL 1 SAPS H3X 48 0.01388600 1.008000
49 L21_hL 1 SAPS H3Y 49 0.01388600 1.008000
50 L21_cD 1 SAPS C2X 50 -0.11702000 12.010000
51 L21_hL 1 SAPS H2X 51 0.05180700 1.008000
52 L21_hL 1 SAPS H2Y 52 0.05180700 1.008000
53 L21_cC 1 SAPS C11 53 0.88754900 12.010000
54 L21_oC 1 SAPS O12 54 -0.66333100 16.000000
55 L21_oS 1 SAPS O11 55 -0.57907300 16.000000
56 L21_cA 1 SAPS C1 56 0.27117300 12.010000
57 L21_hE 1 SAPS HR 57 0.03745400 1.008000
58 L21_hE 1 SAPS HS 58 0.03745400 1.008000
59 L21_cA 1 SAPS C2 59 0.44065000 12.010000
60 L21_hE 1 SAPS HX 60 0.00247300 1.008000
61 L21_cA 1 SAPS C3 61 0.01236600 12.010000
62 L21_hE 1 SAPS HA 62 0.09734700 1.008000
63 L21_hE 1 SAPS HB 63 0.09734700 1.008000
64 L21_oT 1 SAPS O31 64 -0.55699200 16.000000
65 L21_pA 1 SAPS P31 65 1.38020800 30.970000
66 L21_oT 1 SAPS O32 66 -0.52012800 16.000000
67 L21_cA 1 SAPS C31 67 0.06037500 12.010000
68 L21_hE 1 SAPS H1A 68 0.09348400 1.008000
69 L21_hE 1 SAPS H1B 69 0.09348400 1.008000
70 L21_cA 1 SAPS C32 70 0.03944800 12.010000
71 L21_hX 1 SAPS H2A 71 0.09054900 1.008000
72 L21_nA 1 SAPS N31 72 -0.41432700 14.010000
73 L21_hN 1 SAPS HN1A 73 0.35386600 1.008000
74 L21_hN 1 SAPS HN1B 74 0.35386600 1.008000
75 L21_hN 1 SAPS HN1C 75 0.35386600 1.008000
76 L21_cC 1 SAPS C33 76 0.80986700 12.010000
77 L21_oP 1 SAPS O33 77 -0.87792200 16.000000
78 L21_oP 1 SAPS O34 78 -0.87792200 16.000000
79 L21_oS 1 SAPS O21 79 -0.63438100 16.000000
80 L21_cC 1 SAPS C21 80 0.89189700 12.010000
81 L21_oC 1 SAPS O22 81 -0.65029100 16.000000
82 L21_oO 1 SAPS O35 82 -0.81517800 16.000000
83 L21_oO 1 SAPS O36 83 -0.81517800 16.000000
84 L21_cD 1 SAPS C16Y 84 0.03910000 12.010000
85 L21_hL 1 SAPS H16U 85 0.02884800 1.008000
86 L21_hL 1 SAPS H16V 86 0.02884800 1.008000
87 L21_cB 1 SAPS C15Y 87 -0.24414900 12.010000
88 L21_hB 1 SAPS H15U 88 0.13279300 1.008000
89 L21_cB 1 SAPS C14Y 89 -0.22476900 12.010000
90 L21_hB 1 SAPS H14U 90 0.12961600 1.008000
91 L21_cD 1 SAPS C13Y 91 0.05819700 12.010000
92 L21_hL 1 SAPS H13U 92 0.06135000 1.008000
93 L21_hL 1 SAPS H13V 93 0.06135000 1.008000
94 L21_cB 1 SAPS C12Y 94 -0.22016400 12.010000
95 L21_hB 1 SAPS H12U 95 0.13198600 1.008000
96 L21_cB 1 SAPS C11Y 96 -0.22870400 12.010000
97 L21_hB 1 SAPS H11U 97 0.13134100 1.008000
98 L21_cD 1 SAPS C10Y 98 0.09540600 12.010000
99 L21_hL 1 SAPS H10U 99 0.05114000 1.008000
100 L21_hL 1 SAPS H10V 100 0.05114000 1.008000
101 L21_cB 1 SAPS C9Y 101 -0.22869400 12.010000
102 L21_hB 1 SAPS H9U 102 0.13216700 1.008000
103 L21_cB 1 SAPS C8Y 103 -0.22852700 12.010000
104 L21_hB 1 SAPS H8U 104 0.13473500 1.008000
105 L21_cD 1 SAPS C7Y 105 0.05578400 12.010000
106 L21_hL 1 SAPS H7U 106 0.06277500 1.008000
107 L21_hL 1 SAPS H7V 107 0.06277500 1.008000
108 L21_cB 1 SAPS C6Y 108 -0.20678600 12.010000
109 L21_hB 1 SAPS H6U 109 0.12985800 1.008000
110 L21_cB 1 SAPS C5Y 110 -0.26789000 12.010000
111 L21_hB 1 SAPS H5U 111 0.14357700 1.008000
112 L21_cD 1 SAPS C4Y 112 0.03138200 12.010000
113 L21_hL 1 SAPS H4U 113 0.03870800 1.008000
114 L21_hL 1 SAPS H4V 114 0.03870800 1.008000
115 L21_cD 1 SAPS C3Y 115 0.02562600 12.010000
116 L21_hL 1 SAPS H3U 116 0.02511700 1.008000
117 L21_hL 1 SAPS H3V 117 0.02511700 1.008000
118 L21_cD 1 SAPS C2Y 118 -0.12393500 12.010000
119 L21_hL 1 SAPS H2U 119 0.02453500 1.008000
120 L21_hL 1 SAPS H2V 120 0.02453500 1.008000
121 L21_cD 1 SAPS C17Y 121 -0.02839800 12.010000
122 L21_hL 1 SAPS H17U 122 0.01958100 1.008000
123 L21_hL 1 SAPS H17V 123 0.01958100 1.008000
124 L21_cD 1 SAPS C18Y 124 -0.01977200 12.010000
125 L21_hL 1 SAPS H18U 125 0.01421800 1.008000
126 L21_hL 1 SAPS H18V 126 0.01421800 1.008000
127 L21_cD 1 SAPS C19Y 127 0.02495700 12.010000
128 L21_hL 1 SAPS H19U 128 0.00542600 1.008000
129 L21_hL 1 SAPS H19V 129 0.00542600 1.008000
130 L21_cD 1 SAPS C20Y 130 -0.10930200 12.010000
131 L21_hL 1 SAPS H20U 131 0.02372300 1.008000
132 L21_hL 1 SAPS H20V 132 0.02372300 1.008000
133 L21_hL 1 SAPS H20W 133 0.02372300 1.008000

[ bonds ]
;    ai     aj funct         c0         c1         c2         c3
     50     53     1   0.15080 274721.440000
     47     50     1   0.15350 253634.080000
     44     47     1   0.15350 253634.080000
     41     44     1   0.15350 253634.080000
     38     41     1   0.15350 253634.080000
     35     38     1   0.15350 253634.080000
     32     35     1   0.15350 253634.080000
     29     32     1   0.15350 253634.080000
     26     29     1   0.15350 253634.080000
     23     26     1   0.15350 253634.080000
     20     23     1   0.15350 253634.080000
     17     20     1   0.15350 253634.080000
     14     17     1   0.15350 253634.080000
     11     14     1   0.15350 253634.080000
      8     11     1   0.15350 253634.080000
      5      8     1   0.15350 253634.080000
      1      5     1   0.15350 253634.080000
     80     81     1   0.12140 542246.400000
     80    118     1   0.15080 274721.440000
     79     80     1   0.13430 344175.840000
     76     82     1   0.12140 542246.400000
     76     83     1   0.12140 542246.400000
     70     72     1   0.14990 245684.480000
     70     76     1   0.15080 274721.440000
     67     70     1   0.15350 253634.080000
     66     67     1   0.14390 252295.200000
     65     66     1   0.16100 192464.000000
     65     77     1   0.14800 439320.000000
     65     78     1   0.14800 439320.000000
     64     65     1   0.16100 192464.000000
     61     64     1   0.14390 252295.200000
     59     61     1   0.15350 253634.080000
     59     79     1   0.14390 252295.200000
     56     59     1   0.15350 253634.080000
     55     56     1   0.14390 252295.200000
     53     54     1   0.12140 542246.400000
     53     55     1   0.13430 344175.840000
    127    130     1   0.15350 253634.080000
    124    127     1   0.15350 253634.080000
    121    124     1   0.15350 253634.080000
    115    118     1   0.15350 253634.080000
    112    115     1   0.15350 253634.080000
    110    112     1   0.15080 274721.440000
    108    110     1   0.13240 493460.960000
    105    108     1   0.15080 274721.440000
    103    105     1   0.15080 274721.440000
    101    103     1   0.13240 493460.960000
     98    101     1   0.15080 274721.440000
     96     98     1   0.15080 274721.440000
     94     96     1   0.13240 493460.960000
     91     94     1   0.15080 274721.440000
     89     91     1   0.15080 274721.440000
     87     89     1   0.13240 493460.960000
     84     87     1   0.15080 274721.440000
     84    121     1   0.15350 253634.080000
     50     51     1   0.10920 282252.640000
     50     52     1   0.10920 282252.640000
     47     49     1   0.10920 282252.640000
     47     48     1   0.10920 282252.640000
     44     45     1   0.10920 282252.640000
     44     46     1   0.10920 282252.640000
     41     43     1   0.10920 282252.640000
     41     42     1   0.10920 282252.640000
     38     39     1   0.10920 282252.640000
     38     40     1   0.10920 282252.640000
     35     37     1   0.10920 282252.640000
     35     36     1   0.10920 282252.640000
     32     33     1   0.10920 282252.640000
     32     34     1   0.10920 282252.640000
     29     31     1   0.10920 282252.640000
     29     30     1   0.10920 282252.640000
     26     27     1   0.10920 282252.640000
     26     28     1   0.10920 282252.640000
     23     25     1   0.10920 282252.640000
     23     24     1   0.10920 282252.640000
     20     21     1   0.10920 282252.640000
     20     22     1   0.10920 282252.640000
     17     19     1   0.10920 282252.640000
     17     18     1   0.10920 282252.640000
     14     15     1   0.10920 282252.640000
     14     16     1   0.10920 282252.640000
     11     13     1   0.10920 282252.640000
     11     12     1   0.10920 282252.640000
      8      9     1   0.10920 282252.640000
      8     10     1   0.10920 282252.640000
      5      7     1   0.10920 282252.640000
      5      6     1   0.10920 282252.640000
      1      4     1   0.10920 282252.640000
      1      3     1   0.10920 282252.640000
      1      2     1   0.10920 282252.640000
     72     73     1   0.10330 308779.200000
     72     74     1   0.10330 308779.200000
     72     75     1   0.10330 308779.200000
     70     71     1   0.10910 283424.160000
     67     68     1   0.10930 281081.120000
     67     69     1   0.10930 281081.120000
     61     62     1   0.10930 281081.120000
     61     63     1   0.10930 281081.120000
     59     60     1   0.10930 281081.120000
     56     57     1   0.10930 281081.120000
     56     58     1   0.10930 281081.120000
    130    131     1   0.10920 282252.640000
    130    132     1   0.10920 282252.640000
    130    133     1   0.10920 282252.640000
    127    128     1   0.10920 282252.640000
    127    129     1   0.10920 282252.640000
    124    125     1   0.10920 282252.640000
    124    126     1   0.10920 282252.640000
    121    122     1   0.10920 282252.640000
    121    123     1   0.10920 282252.640000
    118    119     1   0.10920 282252.640000
    118    120     1   0.10920 282252.640000
    115    116     1   0.10920 282252.640000
    115    117     1   0.10920 282252.640000
    112    113     1   0.10920 282252.640000
    112    114     1   0.10920 282252.640000
    110    111     1   0.10870 288110.240000
    108    109     1   0.10870 288110.240000
    105    106     1   0.10920 282252.640000
    105    107     1   0.10920 282252.640000
    103    104     1   0.10870 288110.240000
    101    102     1   0.10870 288110.240000
     98     99     1   0.10920 282252.640000
     98    100     1   0.10920 282252.640000
     96     97     1   0.10870 288110.240000
     94     95     1   0.10870 288110.240000
     91     92     1   0.10920 282252.640000
     91     93     1   0.10920 282252.640000
     89     90     1   0.10870 288110.240000
     87     88     1   0.10870 288110.240000
     84     85     1   0.10920 282252.640000
     84     86     1   0.10920 282252.640000


[ pairs ]
; ai aj funct fudgeQQ qi qj sigma epsilon; source-specific LJ and charge scaling
1 9 2 0.83333333333333 -0.12006900007134 0.015626999994512 0.30005468824211 0.069194303392389
1 10 2 0.83333333333333 -0.12006900007134 0.015626999994512 0.30005468824211 0.069194303392389
1 11 2 0.83333333333333 -0.12006900007134 -0.032443999989024 0.33996695084507 0.076288266607901
2 6 2 0.83333333333333 0.027937999978049 0.0084830000054878 0.26014242576773 0.020919999936173
2 7 2 0.83333333333333 0.027937999978049 0.0084830000054878 0.26014242576773 0.020919999936173
2 8 2 0.83333333333333 0.027937999978049 -0.027653999989024 0.30005468824211 0.069194303392389
3 6 2 0.83333333333333 0.027937999978049 0.0084830000054878 0.26014242576773 0.020919999936173
3 7 2 0.83333333333333 0.027937999978049 0.0084830000054878 0.26014242576773 0.020919999936173
3 8 2 0.83333333333333 0.027937999978049 -0.027653999989024 0.30005468824211 0.069194303392389
4 6 2 0.83333333333333 0.027937999978049 0.0084830000054878 0.26014242576773 0.020919999936173
4 7 2 0.83333333333333 0.027937999978049 0.0084830000054878 0.26014242576773 0.020919999936173
4 8 2 0.83333333333333 0.027937999978049 -0.027653999989024 0.30005468824211 0.069194303392389
5 12 2 0.83333333333333 0.020665000027439 0.010253000005488 0.30005468824211 0.069194303392389
5 13 2 0.83333333333333 0.020665000027439 0.010253000005488 0.30005468824211 0.069194303392389
5 14 2 0.83333333333333 0.020665000027439 -0.013489000016463 0.33996695084507 0.076288266607901
6 9 2 0.83333333333333 0.0084830000054878 0.015626999994512 0.26014242576773 0.020919999936173
6 10 2 0.83333333333333 0.0084830000054878 0.015626999994512 0.26014242576773 0.020919999936173
6 11 2 0.83333333333333 0.0084830000054878 -0.032443999989024 0.30005468824211 0.069194303392389
7 9 2 0.83333333333333 0.0084830000054878 0.015626999994512 0.26014242576773 0.020919999936173
7 10 2 0.83333333333333 0.0084830000054878 0.015626999994512 0.26014242576773 0.020919999936173
7 11 2 0.83333333333333 0.0084830000054878 -0.032443999989024 0.30005468824211 0.069194303392389
8 15 2 0.83333333333333 -0.027653999989024 0.010073000005488 0.30005468824211 0.069194303392389
8 16 2 0.83333333333333 -0.027653999989024 0.010073000005488 0.30005468824211 0.069194303392389
8 17 2 0.83333333333333 -0.027653999989024 -0.01159 0.33996695084507 0.076288266607901
9 12 2 0.83333333333333 0.015626999994512 0.010253000005488 0.26014242576773 0.020919999936173
9 13 2 0.83333333333333 0.015626999994512 0.010253000005488 0.26014242576773 0.020919999936173
9 14 2 0.83333333333333 0.015626999994512 -0.013489000016463 0.30005468824211 0.069194303392389
10 12 2 0.83333333333333 0.015626999994512 0.010253000005488 0.26014242576773 0.020919999936173
10 13 2 0.83333333333333 0.015626999994512 0.010253000005488 0.26014242576773 0.020919999936173
10 14 2 0.83333333333333 0.015626999994512 -0.013489000016463 0.30005468824211 0.069194303392389
11 18 2 0.83333333333333 -0.032443999989024 0.0060220000219511 0.30005468824211 0.069194303392389
11 19 2 0.83333333333333 -0.032443999989024 0.0060220000219511 0.30005468824211 0.069194303392389
11 20 2 0.83333333333333 -0.032443999989024 -0.019153000005488 0.33996695084507 0.076288266607901
12 15 2 0.83333333333333 0.010253000005488 0.010073000005488 0.26014242576773 0.020919999936173
12 16 2 0.83333333333333 0.010253000005488 0.010073000005488 0.26014242576773 0.020919999936173
12 17 2 0.83333333333333 0.010253000005488 -0.01159 0.30005468824211 0.069194303392389
13 15 2 0.83333333333333 0.010253000005488 0.010073000005488 0.26014242576773 0.020919999936173
13 16 2 0.83333333333333 0.010253000005488 0.010073000005488 0.26014242576773 0.020919999936173
13 17 2 0.83333333333333 0.010253000005488 -0.01159 0.30005468824211 0.069194303392389
14 21 2 0.83333333333333 -0.013489000016463 0.0081979999780489 0.30005468824211 0.069194303392389
14 22 2 0.83333333333333 -0.013489000016463 0.0081979999780489 0.30005468824211 0.069194303392389
14 23 2 0.83333333333333 -0.013489000016463 -0.017093000005488 0.33996695084507 0.076288266607901
15 18 2 0.83333333333333 0.010073000005488 0.0060220000219511 0.26014242576773 0.020919999936173
15 19 2 0.83333333333333 0.010073000005488 0.0060220000219511 0.26014242576773 0.020919999936173
15 20 2 0.83333333333333 0.010073000005488 -0.019153000005488 0.30005468824211 0.069194303392389
16 18 2 0.83333333333333 0.010073000005488 0.0060220000219511 0.26014242576773 0.020919999936173
16 19 2 0.83333333333333 0.010073000005488 0.0060220000219511 0.26014242576773 0.020919999936173
16 20 2 0.83333333333333 0.010073000005488 -0.019153000005488 0.30005468824211 0.069194303392389
17 24 2 0.83333333333333 -0.01159 0.010206000010976 0.30005468824211 0.069194303392389
17 25 2 0.83333333333333 -0.01159 0.010206000010976 0.30005468824211 0.069194303392389
17 26 2 0.83333333333333 -0.01159 -0.026417999978049 0.33996695084507 0.076288266607901
18 21 2 0.83333333333333 0.0060220000219511 0.0081979999780489 0.26014242576773 0.020919999936173
18 22 2 0.83333333333333 0.0060220000219511 0.0081979999780489 0.26014242576773 0.020919999936173
18 23 2 0.83333333333333 0.0060220000219511 -0.017093000005488 0.30005468824211 0.069194303392389
19 21 2 0.83333333333333 0.0060220000219511 0.0081979999780489 0.26014242576773 0.020919999936173
19 22 2 0.83333333333333 0.0060220000219511 0.0081979999780489 0.26014242576773 0.020919999936173
19 23 2 0.83333333333333 0.0060220000219511 -0.017093000005488 0.30005468824211 0.069194303392389
20 27 2 0.83333333333333 -0.019153000005488 0.010824999972561 0.30005468824211 0.069194303392389
20 28 2 0.83333333333333 -0.019153000005488 0.010824999972561 0.30005468824211 0.069194303392389
20 29 2 0.83333333333333 -0.019153000005488 -0.017996999994512 0.33996695084507 0.076288266607901
21 24 2 0.83333333333333 0.0081979999780489 0.010206000010976 0.26014242576773 0.020919999936173
21 25 2 0.83333333333333 0.0081979999780489 0.010206000010976 0.26014242576773 0.020919999936173
21 26 2 0.83333333333333 0.0081979999780489 -0.026417999978049 0.30005468824211 0.069194303392389
22 24 2 0.83333333333333 0.0081979999780489 0.010206000010976 0.26014242576773 0.020919999936173
22 25 2 0.83333333333333 0.0081979999780489 0.010206000010976 0.26014242576773 0.020919999936173
22 26 2 0.83333333333333 0.0081979999780489 -0.026417999978049 0.30005468824211 0.069194303392389
23 30 2 0.83333333333333 -0.017093000005488 0.0095950000274389 0.30005468824211 0.069194303392389
23 31 2 0.83333333333333 -0.017093000005488 0.0095950000274389 0.30005468824211 0.069194303392389
23 32 2 0.83333333333333 -0.017093000005488 -0.014623000005488 0.33996695084507 0.076288266607901
24 27 2 0.83333333333333 0.010206000010976 0.010824999972561 0.26014242576773 0.020919999936173
24 28 2 0.83333333333333 0.010206000010976 0.010824999972561 0.26014242576773 0.020919999936173
24 29 2 0.83333333333333 0.010206000010976 -0.017996999994512 0.30005468824211 0.069194303392389
25 27 2 0.83333333333333 0.010206000010976 0.010824999972561 0.26014242576773 0.020919999936173
25 28 2 0.83333333333333 0.010206000010976 0.010824999972561 0.26014242576773 0.020919999936173
25 29 2 0.83333333333333 0.010206000010976 -0.017996999994512 0.30005468824211 0.069194303392389
26 33 2 0.83333333333333 -0.026417999978049 0.0073260000109756 0.30005468824211 0.069194303392389
26 34 2 0.83333333333333 -0.026417999978049 0.0073260000109756 0.30005468824211 0.069194303392389
26 35 2 0.83333333333333 -0.026417999978049 -0.019469000016463 0.33996695084507 0.076288266607901
27 30 2 0.83333333333333 0.010824999972561 0.0095950000274389 0.26014242576773 0.020919999936173
27 31 2 0.83333333333333 0.010824999972561 0.0095950000274389 0.26014242576773 0.020919999936173
27 32 2 0.83333333333333 0.010824999972561 -0.014623000005488 0.30005468824211 0.069194303392389
28 30 2 0.83333333333333 0.010824999972561 0.0095950000274389 0.26014242576773 0.020919999936173
28 31 2 0.83333333333333 0.010824999972561 0.0095950000274389 0.26014242576773 0.020919999936173
28 32 2 0.83333333333333 0.010824999972561 -0.014623000005488 0.30005468824211 0.069194303392389
29 36 2 0.83333333333333 -0.017996999994512 0.0092920000219511 0.30005468824211 0.069194303392389
29 37 2 0.83333333333333 -0.017996999994512 0.0092920000219511 0.30005468824211 0.069194303392389
29 38 2 0.83333333333333 -0.017996999994512 -0.037626999994512 0.33996695084507 0.076288266607901
30 33 2 0.83333333333333 0.0095950000274389 0.0073260000109756 0.26014242576773 0.020919999936173
30 34 2 0.83333333333333 0.0095950000274389 0.0073260000109756 0.26014242576773 0.020919999936173
30 35 2 0.83333333333333 0.0095950000274389 -0.019469000016463 0.30005468824211 0.069194303392389
31 33 2 0.83333333333333 0.0095950000274389 0.0073260000109756 0.26014242576773 0.020919999936173
31 34 2 0.83333333333333 0.0095950000274389 0.0073260000109756 0.26014242576773 0.020919999936173
31 35 2 0.83333333333333 0.0095950000274389 -0.019469000016463 0.30005468824211 0.069194303392389
32 39 2 0.83333333333333 -0.014623000005488 0.01774 0.30005468824211 0.069194303392389
32 40 2 0.83333333333333 -0.014623000005488 0.01774 0.30005468824211 0.069194303392389
32 41 2 0.83333333333333 -0.014623000005488 -0.013443000005488 0.33996695084507 0.076288266607901
33 36 2 0.83333333333333 0.0073260000109756 0.0092920000219511 0.26014242576773 0.020919999936173
33 37 2 0.83333333333333 0.0073260000109756 0.0092920000219511 0.26014242576773 0.020919999936173
33 38 2 0.83333333333333 0.0073260000109756 -0.037626999994512 0.30005468824211 0.069194303392389
34 36 2 0.83333333333333 0.0073260000109756 0.0092920000219511 0.26014242576773 0.020919999936173
34 37 2 0.83333333333333 0.0073260000109756 0.0092920000219511 0.26014242576773 0.020919999936173
34 38 2 0.83333333333333 0.0073260000109756 -0.037626999994512 0.30005468824211 0.069194303392389
35 42 2 0.83333333333333 -0.019469000016463 0.0081909999835367 0.30005468824211 0.069194303392389
35 43 2 0.83333333333333 -0.019469000016463 0.0081909999835367 0.30005468824211 0.069194303392389
35 44 2 0.83333333333333 -0.019469000016463 -0.059791999912195 0.33996695084507 0.076288266607901
36 39 2 0.83333333333333 0.0092920000219511 0.01774 0.26014242576773 0.020919999936173
36 40 2 0.83333333333333 0.0092920000219511 0.01774 0.26014242576773 0.020919999936173
36 41 2 0.83333333333333 0.0092920000219511 -0.013443000005488 0.30005468824211 0.069194303392389
37 39 2 0.83333333333333 0.0092920000219511 0.01774 0.26014242576773 0.020919999936173
37 40 2 0.83333333333333 0.0092920000219511 0.01774 0.26014242576773 0.020919999936173
37 41 2 0.83333333333333 0.0092920000219511 -0.013443000005488 0.30005468824211 0.069194303392389
38 45 2 0.83333333333333 -0.037626999994512 0.024240999983537 0.30005468824211 0.069194303392389
38 46 2 0.83333333333333 -0.037626999994512 0.024240999983537 0.30005468824211 0.069194303392389
38 47 2 0.83333333333333 -0.037626999994512 -0.000128 0.33996695084507 0.076288266607901
39 42 2 0.83333333333333 0.01774 0.0081909999835367 0.26014242576773 0.020919999936173
39 43 2 0.83333333333333 0.01774 0.0081909999835367 0.26014242576773 0.020919999936173
39 44 2 0.83333333333333 0.01774 -0.059791999912195 0.30005468824211 0.069194303392389
40 42 2 0.83333333333333 0.01774 0.0081909999835367 0.26014242576773 0.020919999936173
40 43 2 0.83333333333333 0.01774 0.0081909999835367 0.26014242576773 0.020919999936173
40 44 2 0.83333333333333 0.01774 -0.059791999912195 0.30005468824211 0.069194303392389
41 48 2 0.83333333333333 -0.013443000005488 0.013886000010976 0.30005468824211 0.069194303392389
41 49 2 0.83333333333333 -0.013443000005488 0.013886000010976 0.30005468824211 0.069194303392389
41 50 2 0.83333333333333 -0.013443000005488 -0.11702000021951 0.33996695084507 0.076288266607901
42 45 2 0.83333333333333 0.0081909999835367 0.024240999983537 0.26014242576773 0.020919999936173
42 46 2 0.83333333333333 0.0081909999835367 0.024240999983537 0.26014242576773 0.020919999936173
42 47 2 0.83333333333333 0.0081909999835367 -0.000128 0.30005468824211 0.069194303392389
43 45 2 0.83333333333333 0.0081909999835367 0.024240999983537 0.26014242576773 0.020919999936173
43 46 2 0.83333333333333 0.0081909999835367 0.024240999983537 0.26014242576773 0.020919999936173
43 47 2 0.83333333333333 0.0081909999835367 -0.000128 0.30005468824211 0.069194303392389
44 51 2 0.83333333333333 -0.059791999912195 0.051806999994512 0.30005468824211 0.069194303392389
44 52 2 0.83333333333333 -0.059791999912195 0.051806999994512 0.30005468824211 0.069194303392389
44 53 2 0.83333333333333 -0.059791999912195 0.88754899765672 0.33996695087407 0.20291752963184
45 48 2 0.83333333333333 0.024240999983537 0.013886000010976 0.26014242576773 0.020919999936173
45 49 2 0.83333333333333 0.024240999983537 0.013886000010976 0.26014242576773 0.020919999936173
45 50 2 0.83333333333333 0.024240999983537 -0.11702000021951 0.30005468824211 0.069194303392389
46 48 2 0.83333333333333 0.024240999983537 0.013886000010976 0.26014242576773 0.020919999936173
46 49 2 0.83333333333333 0.024240999983537 0.013886000010976 0.26014242576773 0.020919999936173
46 50 2 0.83333333333333 0.024240999983537 -0.11702000021951 0.30005468824211 0.069194303392389
47 54 2 0.83333333333333 -0.000128 -0.66333100102622 0.31797957047595 0.31708813257529
47 55 2 0.83333333333333 -0.000128 -0.57907299846891 0.31998409262799 0.28529542121767
48 51 2 0.83333333333333 0.013886000010976 0.051806999994512 0.26014242576773 0.020919999936173
48 52 2 0.83333333333333 0.013886000010976 0.051806999994512 0.26014242576773 0.020919999936173
48 53 2 0.83333333333333 0.013886000010976 0.88754899765672 0.30005468825729 0.061349482798597
49 51 2 0.83333333333333 0.013886000010976 0.051806999994512 0.26014242576773 0.020919999936173
49 52 2 0.83333333333333 0.013886000010976 0.051806999994512 0.26014242576773 0.020919999936173
49 53 2 0.83333333333333 0.013886000010976 0.88754899765672 0.30005468825729 0.061349482798597
50 56 2 0.83333333333333 -0.11702000021951 0.27117300011524 0.33996695084507 0.2288647998237
51 54 2 0.83333333333333 0.051806999994512 -0.66333100102622 0.27806730790153 0.095867483596702
51 55 2 0.83333333333333 0.051806999994512 -0.57907299846891 0.2800718300513 0.086255369632554
52 54 2 0.83333333333333 0.051806999994512 -0.66333100102622 0.27806730790153 0.095867483596702
52 55 2 0.83333333333333 0.051806999994512 -0.57907299846891 0.2800718300513 0.086255369632554
53 57 2 0.83333333333333 0.88754899765672 0.037453999989024 0.29355112761526 0.076870681673027
53 58 2 0.83333333333333 0.88754899765672 0.037453999989024 0.29355112761526 0.076870681673027
53 59 2 0.83333333333333 0.88754899765672 0.44064999972561 0.33996695087407 0.20291752963184
54 56 2 0.83333333333333 -0.66333100102622 0.27117300011524 0.31797957047595 0.31708813257529
55 60 2 0.83333333333333 -0.57907299846891 0.002473 0.27356826939641 0.10807766839674
55 61 2 0.83333333333333 -0.57907299846891 0.012366000010976 0.31998409262799 0.28529542121767
55 79 2 0.83333333333333 -0.57907299846891 -0.63438100020305 0.30000123432245 0.35564000022068
56 62 2 0.83333333333333 0.27117300011524 0.097347000104268 0.29355112776543 0.086700213146672
56 63 2 0.83333333333333 0.27117300011524 0.097347000104268 0.29355112776543 0.086700213146672
56 64 2 0.83333333333333 0.27117300011524 -0.55699199881464 0.31998409262799 0.28529542121767
56 80 2 0.83333333333333 0.27117300011524 0.89189699982988 0.33996695087407 0.20291752963184
57 60 2 0.83333333333333 0.037453999989024 0.002473 0.24713530426422 0.032844400205981
57 61 2 0.83333333333333 0.037453999989024 0.012366000010976 0.29355112776543 0.086700213146672
57 79 2 0.83333333333333 0.037453999989024 -0.63438100020305 0.27356826939641 0.10807766839674
58 60 2 0.83333333333333 0.037453999989024 0.002473 0.24713530426422 0.032844400205981
58 61 2 0.83333333333333 0.037453999989024 0.012366000010976 0.29355112776543 0.086700213146672
58 79 2 0.83333333333333 0.037453999989024 -0.63438100020305 0.27356826939641 0.10807766839674
59 65 2 0.83333333333333 0.44064999972561 1.3802079978927 0.35707220617836 0.30944633210394
59 81 2 0.83333333333333 0.44064999972561 -0.65029100058719 0.31797957047595 0.31708813257529
59 118 2 0.83333333333333 0.44064999972561 -0.12393499997256 0.33996695084507 0.2288647998237
60 62 2 0.83333333333333 0.002473 0.097347000104268 0.24713530426422 0.032844400205981
60 63 2 0.83333333333333 0.002473 0.097347000104268 0.24713530426422 0.032844400205981
60 64 2 0.83333333333333 0.002473 -0.55699199881464 0.27356826939641 0.10807766839674
60 80 2 0.83333333333333 0.002473 0.89189699982988 0.29355112761526 0.076870681673027
61 66 2 0.83333333333333 0.012366000010976 -0.52012799975854 0.31998409262799 0.28529542121767
61 77 2 0.83333333333333 0.012366000010976 -0.87792200216219 0.31797957047595 0.31708813257529
61 78 2 0.83333333333333 0.012366000010976 -0.87792200216219 0.31797957047595 0.31708813257529
61 80 2 0.83333333333333 0.012366000010976 0.89189699982988 0.33996695087407 0.20291752963184
62 65 2 0.83333333333333 0.097347000104268 1.3802079978927 0.31065638299277 0.11722669057481
62 79 2 0.83333333333333 0.097347000104268 -0.63438100020305 0.27356826939641 0.10807766839674
63 65 2 0.83333333333333 0.097347000104268 1.3802079978927 0.31065638299277 0.11722669057481
63 79 2 0.83333333333333 0.097347000104268 -0.63438100020305 0.27356826939641 0.10807766839674
64 67 2 0.83333333333333 -0.55699199881464 0.060374999862805 0.31998409262799 0.28529542121767
64 79 2 0.83333333333333 -0.55699199881464 -0.63438100020305 0.30000123432245 0.35564000022068
65 68 2 0.83333333333333 1.3802079978927 0.093483999824391 0.31065638299277 0.11722669057481
65 69 2 0.83333333333333 1.3802079978927 0.093483999824391 0.31065638299277 0.11722669057481
65 70 2 0.83333333333333 1.3802079978927 0.039447999978049 0.35707220617836 0.30944633210394
66 71 2 0.83333333333333 -0.52012799975854 0.09054899985183 0.24799947608237 0.10807766872372
66 72 2 0.83333333333333 -0.52012799975854 -0.41432699988476 0.31250054330942 0.35564000053052
66 76 2 0.83333333333333 -0.52012799975854 0.80986699812867 0.31998409257159 0.25295039792155
67 73 2 0.83333333333333 0.060374999862805 0.35386599990122 0.22343739849812 0.086700213704004
67 74 2 0.83333333333333 0.060374999862805 0.35386599990122 0.22343739849812 0.086700213704004
67 75 2 0.83333333333333 0.060374999862805 0.35386599990122 0.22343739849812 0.086700213704004
67 77 2 0.83333333333333 0.060374999862805 -0.87792200216219 0.31797957047595 0.31708813257529
67 78 2 0.83333333333333 0.060374999862805 -0.87792200216219 0.31797957047595 0.31708813257529
67 82 2 0.83333333333333 0.060374999862805 -0.81517800167926 0.31797957047595 0.31708813257529
67 83 2 0.83333333333333 0.060374999862805 -0.81517800167926 0.31797957047595 0.31708813257529
68 71 2 0.83333333333333 0.093483999824391 0.09054899985183 0.22156651118302 0.032844400019638
68 72 2 0.83333333333333 0.093483999824391 -0.41432699988476 0.2860675785499 0.10807766765337
68 76 2 0.83333333333333 0.093483999824391 0.80986699812867 0.29355112761526 0.076870681673027
69 71 2 0.83333333333333 0.093483999824391 0.09054899985183 0.22156651118302 0.032844400019638
69 72 2 0.83333333333333 0.093483999824391 -0.41432699988476 0.2860675785499 0.10807766765337
69 76 2 0.83333333333333 0.093483999824391 0.80986699812867 0.29355112761526 0.076870681673027
71 73 2 0.83333333333333 0.09054899985183 0.35386599990122 0.1514527820581 0.032844400050852
71 74 2 0.83333333333333 0.09054899985183 0.35386599990122 0.1514527820581 0.032844400050852
71 75 2 0.83333333333333 0.09054899985183 0.35386599990122 0.1514527820581 0.032844400050852
71 82 2 0.83333333333333 0.09054899985183 -0.81517800167926 0.24599495407288 0.12012161243268
71 83 2 0.83333333333333 0.09054899985183 -0.81517800167926 0.24599495407288 0.12012161243268
72 82 2 0.83333333333333 -0.41432699988476 -0.81517800167926 0.31049602120171 0.39527176105277
72 83 2 0.83333333333333 -0.41432699988476 -0.81517800167926 0.31049602120171 0.39527176105277
73 76 2 0.83333333333333 0.35386599990122 0.80986699812867 0.22343739851452 0.076870681768142
74 76 2 0.83333333333333 0.35386599990122 0.80986699812867 0.22343739851452 0.076870681768142
75 76 2 0.83333333333333 0.35386599990122 0.80986699812867 0.22343739851452 0.076870681768142
79 115 2 0.83333333333333 -0.63438100020305 0.025626000010976 0.31998409262799 0.28529542121767
79 119 2 0.83333333333333 -0.63438100020305 0.024535000027439 0.2800718300513 0.086255369632554
79 120 2 0.83333333333333 -0.63438100020305 0.024535000027439 0.2800718300513 0.086255369632554
80 112 2 0.83333333333333 0.89189699982988 0.031382000021951 0.33996695087407 0.20291752963184
80 116 2 0.83333333333333 0.89189699982988 0.025116999994512 0.30005468825729 0.061349482798597
80 117 2 0.83333333333333 0.89189699982988 0.025116999994512 0.30005468825729 0.061349482798597
81 115 2 0.83333333333333 -0.65029100058719 0.025626000010976 0.31797957047595 0.31708813257529
81 119 2 0.83333333333333 -0.65029100058719 0.024535000027439 0.27806730790153 0.095867483596702
81 120 2 0.83333333333333 -0.65029100058719 0.024535000027439 0.27806730790153 0.095867483596702
84 90 2 0.83333333333333 0.0391 0.12961600017561 0.28134581515096 0.057892107742859
84 91 2 0.83333333333333 0.0391 0.058196999829879 0.33996695084507 0.2288647998237
84 125 2 0.83333333333333 0.0391 0.014217999978049 0.30005468824211 0.069194303392389
84 126 2 0.83333333333333 0.0391 0.014217999978049 0.30005468824211 0.069194303392389
84 127 2 0.83333333333333 0.0391 0.024956999994512 0.33996695084507 0.076288266607901
85 88 2 0.83333333333333 0.028847999978049 0.13279299978598 0.24143355271439 0.017502927720476
85 89 2 0.83333333333333 0.028847999978049 -0.22476900007134 0.30005468825729 0.061349482798597
85 122 2 0.83333333333333 0.028847999978049 0.019580999983537 0.26014242576773 0.020919999936173
85 123 2 0.83333333333333 0.028847999978049 0.019580999983537 0.26014242576773 0.020919999936173
85 124 2 0.83333333333333 0.028847999978049 -0.019772000021951 0.30005468824211 0.069194303392389
86 88 2 0.83333333333333 0.028847999978049 0.13279299978598 0.24143355271439 0.017502927720476
86 89 2 0.83333333333333 0.028847999978049 -0.22476900007134 0.30005468825729 0.061349482798597
86 122 2 0.83333333333333 0.028847999978049 0.019580999983537 0.26014242576773 0.020919999936173
86 123 2 0.83333333333333 0.028847999978049 0.019580999983537 0.26014242576773 0.020919999936173
86 124 2 0.83333333333333 0.028847999978049 -0.019772000021951 0.30005468824211 0.069194303392389
87 92 2 0.83333333333333 -0.24414899985183 0.061350000274389 0.30005468825729 0.061349482798597
87 93 2 0.83333333333333 -0.24414899985183 0.061350000274389 0.30005468825729 0.061349482798597
87 94 2 0.83333333333333 -0.24414899985183 -0.22016400015366 0.33996695079448 0.17991200026853
87 122 2 0.83333333333333 -0.24414899985183 0.019580999983537 0.30005468825729 0.061349482798597
87 123 2 0.83333333333333 -0.24414899985183 0.019580999983537 0.30005468825729 0.061349482798597
87 124 2 0.83333333333333 -0.24414899985183 -0.019772000021951 0.33996695087407 0.20291752963184
88 90 2 0.83333333333333 0.13279299978598 0.12961600017561 0.22272467949703 0.014644000015013
88 91 2 0.83333333333333 0.13279299978598 0.058196999829879 0.28134581515096 0.057892107742859
88 121 2 0.83333333333333 0.13279299978598 -0.028397999978049 0.28134581515096 0.057892107742859
89 95 2 0.83333333333333 -0.22476900007134 0.13198600012073 0.28134581517665 0.051328659869652
89 96 2 0.83333333333333 -0.22476900007134 -0.2287040000439 0.33996695079448 0.17991200026853
89 121 2 0.83333333333333 -0.22476900007134 -0.028397999978049 0.33996695087407 0.20291752963184
90 92 2 0.83333333333333 0.12961600017561 0.061350000274389 0.24143355271439 0.017502927720476
90 93 2 0.83333333333333 0.12961600017561 0.061350000274389 0.24143355271439 0.017502927720476
90 94 2 0.83333333333333 0.12961600017561 -0.22016400015366 0.28134581517665 0.051328659869652
91 97 2 0.83333333333333 0.058196999829879 0.13134099976403 0.28134581515096 0.057892107742859
91 98 2 0.83333333333333 0.058196999829879 0.095405999791464 0.33996695084507 0.2288647998237
92 95 2 0.83333333333333 0.061350000274389 0.13198600012073 0.24143355271439 0.017502927720476
92 96 2 0.83333333333333 0.061350000274389 -0.2287040000439 0.30005468825729 0.061349482798597
93 95 2 0.83333333333333 0.061350000274389 0.13198600012073 0.24143355271439 0.017502927720476
93 96 2 0.83333333333333 0.061350000274389 -0.2287040000439 0.30005468825729 0.061349482798597
94 99 2 0.83333333333333 -0.22016400015366 0.05114 0.30005468825729 0.061349482798597
94 100 2 0.83333333333333 -0.22016400015366 0.05114 0.30005468825729 0.061349482798597
94 101 2 0.83333333333333 -0.22016400015366 -0.22869400020854 0.33996695079448 0.17991200026853
95 97 2 0.83333333333333 0.13198600012073 0.13134099976403 0.22272467949703 0.014644000015013
95 98 2 0.83333333333333 0.13198600012073 0.095405999791464 0.28134581515096 0.057892107742859
96 102 2 0.83333333333333 -0.2287040000439 0.132166999775 0.28134581517665 0.051328659869652
96 103 2 0.83333333333333 -0.2287040000439 -0.22852699988476 0.33996695079448 0.17991200026853
97 99 2 0.83333333333333 0.13134099976403 0.05114 0.24143355271439 0.017502927720476
97 100 2 0.83333333333333 0.13134099976403 0.05114 0.24143355271439 0.017502927720476
97 101 2 0.83333333333333 0.13134099976403 -0.22869400020854 0.28134581517665 0.051328659869652
98 104 2 0.83333333333333 0.095405999791464 0.13473499997256 0.28134581515096 0.057892107742859
98 105 2 0.83333333333333 0.095405999791464 0.055783999824391 0.33996695084507 0.2288647998237
99 102 2 0.83333333333333 0.05114 0.132166999775 0.24143355271439 0.017502927720476
99 103 2 0.83333333333333 0.05114 -0.22852699988476 0.30005468825729 0.061349482798597
100 102 2 0.83333333333333 0.05114 0.132166999775 0.24143355271439 0.017502927720476
100 103 2 0.83333333333333 0.05114 -0.22852699988476 0.30005468825729 0.061349482798597
101 106 2 0.83333333333333 -0.22869400020854 0.062774999862805 0.30005468825729 0.061349482798597
101 107 2 0.83333333333333 -0.22869400020854 0.062774999862805 0.30005468825729 0.061349482798597
101 108 2 0.83333333333333 -0.22869400020854 -0.20678600012073 0.33996695079448 0.17991200026853
102 104 2 0.83333333333333 0.132166999775 0.13473499997256 0.22272467949703 0.014644000015013
102 105 2 0.83333333333333 0.132166999775 0.055783999824391 0.28134581515096 0.057892107742859
103 109 2 0.83333333333333 -0.22852699988476 0.12985799981342 0.28134581517665 0.051328659869652
103 110 2 0.83333333333333 -0.22852699988476 -0.26789000016463 0.33996695079448 0.17991200026853
104 106 2 0.83333333333333 0.13473499997256 0.062774999862805 0.24143355271439 0.017502927720476
104 107 2 0.83333333333333 0.13473499997256 0.062774999862805 0.24143355271439 0.017502927720476
104 108 2 0.83333333333333 0.13473499997256 -0.20678600012073 0.28134581517665 0.051328659869652
105 111 2 0.83333333333333 0.055783999824391 0.14357700015915 0.28134581515096 0.057892107742859
105 112 2 0.83333333333333 0.055783999824391 0.031382000021951 0.33996695084507 0.2288647998237
106 109 2 0.83333333333333 0.062774999862805 0.12985799981342 0.24143355271439 0.017502927720476
106 110 2 0.83333333333333 0.062774999862805 -0.26789000016463 0.30005468825729 0.061349482798597
107 109 2 0.83333333333333 0.062774999862805 0.12985799981342 0.24143355271439 0.017502927720476
107 110 2 0.83333333333333 0.062774999862805 -0.26789000016463 0.30005468825729 0.061349482798597
108 113 2 0.83333333333333 -0.20678600012073 0.038707999978049 0.30005468825729 0.061349482798597
108 114 2 0.83333333333333 -0.20678600012073 0.038707999978049 0.30005468825729 0.061349482798597
108 115 2 0.83333333333333 -0.20678600012073 0.025626000010976 0.33996695087407 0.20291752963184
109 111 2 0.83333333333333 0.12985799981342 0.14357700015915 0.22272467949703 0.014644000015013
109 112 2 0.83333333333333 0.12985799981342 0.031382000021951 0.28134581515096 0.057892107742859
110 116 2 0.83333333333333 -0.26789000016463 0.025116999994512 0.30005468825729 0.061349482798597
110 117 2 0.83333333333333 -0.26789000016463 0.025116999994512 0.30005468825729 0.061349482798597
110 118 2 0.83333333333333 -0.26789000016463 -0.12393499997256 0.33996695087407 0.20291752963184
111 113 2 0.83333333333333 0.14357700015915 0.038707999978049 0.24143355271439 0.017502927720476
111 114 2 0.83333333333333 0.14357700015915 0.038707999978049 0.24143355271439 0.017502927720476
111 115 2 0.83333333333333 0.14357700015915 0.025626000010976 0.28134581515096 0.057892107742859
112 119 2 0.83333333333333 0.031382000021951 0.024535000027439 0.30005468824211 0.069194303392389
112 120 2 0.83333333333333 0.031382000021951 0.024535000027439 0.30005468824211 0.069194303392389
113 116 2 0.83333333333333 0.038707999978049 0.025116999994512 0.26014242576773 0.020919999936173
113 117 2 0.83333333333333 0.038707999978049 0.025116999994512 0.26014242576773 0.020919999936173
113 118 2 0.83333333333333 0.038707999978049 -0.12393499997256 0.30005468824211 0.069194303392389
114 116 2 0.83333333333333 0.038707999978049 0.025116999994512 0.26014242576773 0.020919999936173
114 117 2 0.83333333333333 0.038707999978049 0.025116999994512 0.26014242576773 0.020919999936173
114 118 2 0.83333333333333 0.038707999978049 -0.12393499997256 0.30005468824211 0.069194303392389
116 119 2 0.83333333333333 0.025116999994512 0.024535000027439 0.26014242576773 0.020919999936173
116 120 2 0.83333333333333 0.025116999994512 0.024535000027439 0.26014242576773 0.020919999936173
117 119 2 0.83333333333333 0.025116999994512 0.024535000027439 0.26014242576773 0.020919999936173
117 120 2 0.83333333333333 0.025116999994512 0.024535000027439 0.26014242576773 0.020919999936173
121 128 2 0.83333333333333 -0.028397999978049 0.005426 0.30005468824211 0.069194303392389
121 129 2 0.83333333333333 -0.028397999978049 0.005426 0.30005468824211 0.069194303392389
121 130 2 0.83333333333333 -0.028397999978049 -0.10930199974756 0.33996695084507 0.076288266607901
122 125 2 0.83333333333333 0.019580999983537 0.014217999978049 0.26014242576773 0.020919999936173
122 126 2 0.83333333333333 0.019580999983537 0.014217999978049 0.26014242576773 0.020919999936173
122 127 2 0.83333333333333 0.019580999983537 0.024956999994512 0.30005468824211 0.069194303392389
123 125 2 0.83333333333333 0.019580999983537 0.014217999978049 0.26014242576773 0.020919999936173
123 126 2 0.83333333333333 0.019580999983537 0.014217999978049 0.26014242576773 0.020919999936173
123 127 2 0.83333333333333 0.019580999983537 0.024956999994512 0.30005468824211 0.069194303392389
124 131 2 0.83333333333333 -0.019772000021951 0.023723000005488 0.30005468824211 0.069194303392389
124 132 2 0.83333333333333 -0.019772000021951 0.023723000005488 0.30005468824211 0.069194303392389
124 133 2 0.83333333333333 -0.019772000021951 0.023723000005488 0.30005468824211 0.069194303392389
125 128 2 0.83333333333333 0.014217999978049 0.005426 0.26014242576773 0.020919999936173
125 129 2 0.83333333333333 0.014217999978049 0.005426 0.26014242576773 0.020919999936173
125 130 2 0.83333333333333 0.014217999978049 -0.10930199974756 0.30005468824211 0.069194303392389
126 128 2 0.83333333333333 0.014217999978049 0.005426 0.26014242576773 0.020919999936173
126 129 2 0.83333333333333 0.014217999978049 0.005426 0.26014242576773 0.020919999936173
126 130 2 0.83333333333333 0.014217999978049 -0.10930199974756 0.30005468824211 0.069194303392389
128 131 2 0.83333333333333 0.005426 0.023723000005488 0.26014242576773 0.020919999936173
128 132 2 0.83333333333333 0.005426 0.023723000005488 0.26014242576773 0.020919999936173
128 133 2 0.83333333333333 0.005426 0.023723000005488 0.26014242576773 0.020919999936173
129 131 2 0.83333333333333 0.005426 0.023723000005488 0.26014242576773 0.020919999936173
129 132 2 0.83333333333333 0.005426 0.023723000005488 0.26014242576773 0.020919999936173
129 133 2 0.83333333333333 0.005426 0.023723000005488 0.26014242576773 0.020919999936173

[ angles ]
;    ai     aj     ak funct         c0         c1         c2         c3
     50     53     54     1   123.1100526 569.275040
     50     53     55     1   111.9600481 579.567680
     47     50     53     1   110.5300474 533.794720
     44     47     50     1   112.0500483 394.969600
     41     44     47     1   112.0500483 394.969600
     38     41     44     1   112.0500483 394.969600
     35     38     41     1   112.0500483 394.969600
     32     35     38     1   112.0500483 394.969600
     29     32     35     1   112.0500483 394.969600
     26     29     32     1   112.0500483 394.969600
     23     26     29     1   112.0500483 394.969600
     20     23     26     1   112.0500483 394.969600
     17     20     23     1   112.0500483 394.969600
     14     17     20     1   112.0500483 394.969600
     11     14     17     1   112.0500483 394.969600
      8     11     14     1   112.0500483 394.969600
      5      8     11     1   112.0500483 394.969600
      1      5      8     1   112.0500483 394.969600
     82     76     83     1   130.3800556 654.126560
     81     80    118     1   123.1100526 569.275040
     80    118    115     1   110.5300474 533.794720
     79     80     81     1   123.3300529 635.382240
     79     80    118     1   111.9600481 579.567680
     77     65     78     1   119.9000514 1171.520000
     72     70     76     1   114.2100488 544.505760
     70     76     82     1   123.1100526 569.275040
     70     76     83     1   123.1100526 569.275040
     67     70     72     1   114.3200492 539.317600
     67     70     76     1   110.5300474 533.794720
     66     65     77     1   108.2300464 836.800000
     66     65     78     1   108.2300464 836.800000
     66     67     70     1   108.4200467 567.183040
     65     66     67     1   120.5000516 836.800000
     64     65     66     1   102.6000440 753.120000
     64     65     77     1   108.2300464 836.800000
     64     65     78     1   108.2300464 836.800000
     61     59     79     1   108.4200467 567.183040
     61     64     65     1   120.5000516 836.800000
     59     61     64     1   108.4200467 567.183040
     59     79     80     1   115.1400492 532.455840
     56     59     61     1   110.6300475 528.941280
     56     59     79     1   108.4200467 567.183040
     55     56     59     1   108.4200467 567.183040
     54     53     55     1   123.3300529 635.382240
     53     55     56     1   115.1400492 532.455840
    124    127    130     1   112.0500483 394.969600
    121    124    127     1   112.0500483 394.969600
    112    115    118     1   112.0500483 394.969600
    110    112    115     1   111.4400476 531.619040
    108    110    112     1   123.4200531 538.313440
    105    108    110     1   123.4200531 538.313440
    103    105    108     1   112.0800478 534.966240
    101    103    105     1   123.4200531 538.313440
     98    101    103     1   123.4200531 538.313440
     96     98    101     1   112.0800478 534.966240
     94     96     98     1   123.4200531 538.313440
     91     94     96     1   123.4200531 538.313440
     89     91     94     1   112.0800478 534.966240
     87     84    121     1   111.4400476 531.619040
     87     89     91     1   123.4200531 538.313440
     84     87     89     1   123.4200531 538.313440
     84    121    124     1   112.0500483 394.969600
     52     50     53     1   109.6800468 394.969600
     51     50     52     1   108.3500467 329.950240
     51     50     53     1   109.6800468 394.969600
     49     47     50     1   110.0500475 388.024160
     48     47     50     1   110.0500475 388.024160
     48     47     49     1   108.3500467 329.950240
     47     50     51     1   110.0500475 388.024160
     47     50     52     1   110.0500475 388.024160
     46     44     47     1   110.0500475 388.024160
     45     44     47     1   110.0500475 388.024160
     45     44     46     1   108.3500467 329.950240
     44     47     49     1   110.0500475 388.024160
     44     47     48     1   110.0500475 388.024160
     43     41     44     1   110.0500475 388.024160
     42     41     44     1   110.0500475 388.024160
     42     41     43     1   108.3500467 329.950240
     41     44     45     1   110.0500475 388.024160
     41     44     46     1   110.0500475 388.024160
     40     38     41     1   110.0500475 388.024160
     39     38     41     1   110.0500475 388.024160
     39     38     40     1   108.3500467 329.950240
     38     41     43     1   110.0500475 388.024160
     38     41     42     1   110.0500475 388.024160
     37     35     38     1   110.0500475 388.024160
     36     35     38     1   110.0500475 388.024160
     36     35     37     1   108.3500467 329.950240
     35     38     39     1   110.0500475 388.024160
     35     38     40     1   110.0500475 388.024160
     34     32     35     1   110.0500475 388.024160
     33     32     35     1   110.0500475 388.024160
     33     32     34     1   108.3500467 329.950240
     32     35     37     1   110.0500475 388.024160
     32     35     36     1   110.0500475 388.024160
     31     29     32     1   110.0500475 388.024160
     30     29     32     1   110.0500475 388.024160
     30     29     31     1   108.3500467 329.950240
     29     32     33     1   110.0500475 388.024160
     29     32     34     1   110.0500475 388.024160
     28     26     29     1   110.0500475 388.024160
     27     26     29     1   110.0500475 388.024160
     27     26     28     1   108.3500467 329.950240
     26     29     31     1   110.0500475 388.024160
     26     29     30     1   110.0500475 388.024160
     25     23     26     1   110.0500475 388.024160
     24     23     26     1   110.0500475 388.024160
     24     23     25     1   108.3500467 329.950240
     23     26     27     1   110.0500475 388.024160
     23     26     28     1   110.0500475 388.024160
     22     20     23     1   110.0500475 388.024160
     21     20     23     1   110.0500475 388.024160
     21     20     22     1   108.3500467 329.950240
     20     23     25     1   110.0500475 388.024160
     20     23     24     1   110.0500475 388.024160
     19     17     20     1   110.0500475 388.024160
     18     17     20     1   110.0500475 388.024160
     18     17     19     1   108.3500467 329.950240
     17     20     21     1   110.0500475 388.024160
     17     20     22     1   110.0500475 388.024160
     16     14     17     1   110.0500475 388.024160
     15     14     17     1   110.0500475 388.024160
     15     14     16     1   108.3500467 329.950240
     14     17     19     1   110.0500475 388.024160
     14     17     18     1   110.0500475 388.024160
     13     11     14     1   110.0500475 388.024160
     12     11     14     1   110.0500475 388.024160
     12     11     13     1   108.3500467 329.950240
     11     14     15     1   110.0500475 388.024160
     11     14     16     1   110.0500475 388.024160
     10      8     11     1   110.0500475 388.024160
      9      8     11     1   110.0500475 388.024160
      9      8     10     1   108.3500467 329.950240
      8     11     13     1   110.0500475 388.024160
      8     11     12     1   110.0500475 388.024160
      7      5      8     1   110.0500475 388.024160
      6      5      8     1   110.0500475 388.024160
      6      5      7     1   108.3500467 329.950240
      5      8      9     1   110.0500475 388.024160
      5      8     10     1   110.0500475 388.024160
      4      1      5     1   110.0500475 388.024160
      3      1      5     1   110.0500475 388.024160
      3      1      4     1   108.3500467 329.950240
      2      1      5     1   110.0500475 388.024160
      2      1      4     1   108.3500467 329.950240
      2      1      3     1   108.3500467 329.950240
      1      5      7     1   110.0500475 388.024160
      1      5      6     1   110.0500475 388.024160
     80    118    119     1   109.6800468 394.969600
     80    118    120     1   109.6800468 394.969600
     74     72     75     1   108.1100462 339.071360
     73     72     74     1   108.1100462 339.071360
     73     72     75     1   108.1100462 339.071360
     71     70     72     1   107.9100461 410.199360
     71     70     76     1   109.5400468 395.220640
     70     72     73     1   110.1100470 386.517920
     70     72     74     1   110.1100470 386.517920
     70     72     75     1   110.1100470 386.517920
     69     67     70     1   110.0700471 387.940480
     68     67     69     1   109.5500472 327.858240
     68     67     70     1   110.0700471 387.940480
     67     70     71     1   111.7400478 385.095360
     66     67     68     1   108.8200469 425.429120
     66     67     69     1   108.8200469 425.429120
     63     61     64     1   108.8200469 425.429120
     62     61     63     1   109.5500472 327.858240
     62     61     64     1   108.8200469 425.429120
     60     59     61     1   110.0700471 387.940480
     60     59     79     1   108.8200469 425.429120
     59     61     62     1   110.0700471 387.940480
     59     61     63     1   110.0700471 387.940480
     58     56     59     1   110.0700471 387.940480
     57     56     58     1   109.5500472 327.858240
     57     56     59     1   110.0700471 387.940480
     56     59     60     1   110.0700471 387.940480
     55     56     57     1   108.8200469 425.429120
     55     56     58     1   108.8200469 425.429120
    132    130    133     1   108.3500467 329.950240
    131    130    132     1   108.3500467 329.950240
    131    130    133     1   108.3500467 329.950240
    129    127    130     1   110.0500475 388.024160
    128    127    129     1   108.3500467 329.950240
    128    127    130     1   110.0500475 388.024160
    127    130    131     1   110.0500475 388.024160
    127    130    132     1   110.0500475 388.024160
    127    130    133     1   110.0500475 388.024160
    126    124    127     1   110.0500475 388.024160
    125    124    126     1   108.3500467 329.950240
    125    124    127     1   110.0500475 388.024160
    124    127    128     1   110.0500475 388.024160
    124    127    129     1   110.0500475 388.024160
    123    121    124     1   110.0500475 388.024160
    122    121    123     1   108.3500467 329.950240
    122    121    124     1   110.0500475 388.024160
    121    124    125     1   110.0500475 388.024160
    121    124    126     1   110.0500475 388.024160
    119    118    120     1   108.3500467 329.950240
    117    115    118     1   110.0500475 388.024160
    116    115    117     1   108.3500467 329.950240
    116    115    118     1   110.0500475 388.024160
    115    118    119     1   110.0500475 388.024160
    115    118    120     1   110.0500475 388.024160
    114    112    115     1   110.0500475 388.024160
    113    112    114     1   108.3500467 329.950240
    113    112    115     1   110.0500475 388.024160
    112    115    116     1   110.0500475 388.024160
    112    115    117     1   110.0500475 388.024160
    111    110    112     1   117.3000503 382.082880
    110    112    113     1   110.4900475 393.547040
    110    112    114     1   110.4900475 393.547040
    109    108    110     1   120.9400517 418.734720
    108    110    111     1   120.9400517 418.734720
    107    105    108     1   110.4900475 393.547040
    106    105    107     1   108.3500467 329.950240
    106    105    108     1   110.4900475 393.547040
    105    108    109     1   117.3000503 382.082880
    104    103    105     1   117.3000503 382.082880
    103    105    106     1   110.4900475 393.547040
    103    105    107     1   110.4900475 393.547040
    102    101    103     1   120.9400517 418.734720
    101    103    104     1   120.9400517 418.734720
    100     98    101     1   110.4900475 393.547040
     99     98    100     1   108.3500467 329.950240
     99     98    101     1   110.4900475 393.547040
     98    101    102     1   117.3000503 382.082880
     97     96     98     1   117.3000503 382.082880
     96     98     99     1   110.4900475 393.547040
     96     98    100     1   110.4900475 393.547040
     95     94     96     1   120.9400517 418.734720
     94     96     97     1   120.9400517 418.734720
     93     91     94     1   110.4900475 393.547040
     92     91     93     1   108.3500467 329.950240
     92     91     94     1   110.4900475 393.547040
     91     94     95     1   117.3000503 382.082880
     90     89     91     1   117.3000503 382.082880
     89     91     92     1   110.4900475 393.547040
     89     91     93     1   110.4900475 393.547040
     88     87     89     1   120.9400517 418.734720
     87     89     90     1   120.9400517 418.734720
     86     84     87     1   110.4900475 393.547040
     86     84    121     1   110.0500475 388.024160
     85     84     86     1   108.3500467 329.950240
     85     84     87     1   110.4900475 393.547040
     85     84    121     1   110.0500475 388.024160
     84     87     88     1   117.3000503 382.082880
     84    121    122     1   110.0500475 388.024160
     84    121    123     1   110.0500475 388.024160


[ dihedrals ]
;    ai     aj     ak     al funct         c0         c1         c2         c3         c4         c5
     50     53     55     56     1  180.0000771  11.2968000  2
     47     50     53     54     1  180.0000771  0.0000000  2
     47     50     53     55     1  180.0000771  0.0000000  2
     44     47     50     53     1  0.0000000  0.6527040  3
     41     44     47     50     1  0.0000000  0.4184000  1
     41     44     47     50     1  0.0000000  0.4184000  2
     41     44     47     50     1  0.0000000  1.2552000  3
     41     44     47     50     1  0.0000000  0.4184000  4
     41     44     47     50     1  0.0000000  0.4184000  5
     38     41     44     47     1  0.0000000  0.4184000  1
     38     41     44     47     1  0.0000000  0.4184000  2
     38     41     44     47     1  0.0000000  1.2552000  3
     38     41     44     47     1  0.0000000  0.4184000  4
     38     41     44     47     1  0.0000000  0.4184000  5
     35     38     41     44     1  0.0000000  0.4184000  1
     35     38     41     44     1  0.0000000  0.4184000  2
     35     38     41     44     1  0.0000000  1.2552000  3
     35     38     41     44     1  0.0000000  0.4184000  4
     35     38     41     44     1  0.0000000  0.4184000  5
     32     35     38     41     1  0.0000000  0.4184000  1
     32     35     38     41     1  0.0000000  0.4184000  2
     32     35     38     41     1  0.0000000  1.2552000  3
     32     35     38     41     1  0.0000000  0.4184000  4
     32     35     38     41     1  0.0000000  0.4184000  5
     29     32     35     38     1  0.0000000  0.4184000  1
     29     32     35     38     1  0.0000000  0.4184000  2
     29     32     35     38     1  0.0000000  1.2552000  3
     29     32     35     38     1  0.0000000  0.4184000  4
     29     32     35     38     1  0.0000000  0.4184000  5
     26     29     32     35     1  0.0000000  0.4184000  1
     26     29     32     35     1  0.0000000  0.4184000  2
     26     29     32     35     1  0.0000000  1.2552000  3
     26     29     32     35     1  0.0000000  0.4184000  4
     26     29     32     35     1  0.0000000  0.4184000  5
     23     26     29     32     1  0.0000000  0.4184000  1
     23     26     29     32     1  0.0000000  0.4184000  2
     23     26     29     32     1  0.0000000  1.2552000  3
     23     26     29     32     1  0.0000000  0.4184000  4
     23     26     29     32     1  0.0000000  0.4184000  5
     20     23     26     29     1  0.0000000  0.4184000  1
     20     23     26     29     1  0.0000000  0.4184000  2
     20     23     26     29     1  0.0000000  1.2552000  3
     20     23     26     29     1  0.0000000  0.4184000  4
     20     23     26     29     1  0.0000000  0.4184000  5
     17     20     23     26     1  0.0000000  0.4184000  1
     17     20     23     26     1  0.0000000  0.4184000  2
     17     20     23     26     1  0.0000000  1.2552000  3
     17     20     23     26     1  0.0000000  0.4184000  4
     17     20     23     26     1  0.0000000  0.4184000  5
     14     17     20     23     1  0.0000000  0.4184000  1
     14     17     20     23     1  0.0000000  0.4184000  2
     14     17     20     23     1  0.0000000  1.2552000  3
     14     17     20     23     1  0.0000000  0.4184000  4
     14     17     20     23     1  0.0000000  0.4184000  5
     11     14     17     20     1  0.0000000  0.4184000  1
     11     14     17     20     1  0.0000000  0.4184000  2
     11     14     17     20     1  0.0000000  1.2552000  3
     11     14     17     20     1  0.0000000  0.4184000  4
     11     14     17     20     1  0.0000000  0.4184000  5
      8     11     14     17     1  0.0000000  0.4184000  1
      8     11     14     17     1  0.0000000  0.4184000  2
      8     11     14     17     1  0.0000000  1.2552000  3
      8     11     14     17     1  0.0000000  0.4184000  4
      8     11     14     17     1  0.0000000  0.4184000  5
      5      8     11     14     1  0.0000000  0.4184000  1
      5      8     11     14     1  0.0000000  0.4184000  2
      5      8     11     14     1  0.0000000  1.2552000  3
      5      8     11     14     1  0.0000000  0.4184000  4
      5      8     11     14     1  0.0000000  0.4184000  5
      1      5      8     11     1  0.0000000  0.4184000  1
      1      5      8     11     1  0.0000000  0.4184000  2
      1      5      8     11     1  0.0000000  1.2552000  3
      1      5      8     11     1  0.0000000  0.4184000  4
      1      5      8     11     1  0.0000000  0.4184000  5
     81     80    118    115     1  180.0000771  0.0000000  2
     80    118    115    112     1  0.0000000  0.6527040  3
     79     80    118    115     1  180.0000771  0.0000000  2
     72     70     76     82     1  180.0000771  0.0000000  2
     72     70     76     83     1  180.0000771  0.0000000  2
     67     66     65     77     1  0.0000000  0.0000000  1
     67     66     65     77     1  0.0000000  0.8368000  2
     67     66     65     77     1  0.0000000  0.0000000  3
     67     66     65     77     1  0.0000000  0.0000000  4
     67     66     65     77     1  0.0000000  0.0000000  5
     67     66     65     78     1  0.0000000  0.0000000  1
     67     66     65     78     1  0.0000000  0.8368000  2
     67     66     65     78     1  0.0000000  0.0000000  3
     67     66     65     78     1  0.0000000  0.0000000  4
     67     66     65     78     1  0.0000000  0.0000000  5
     67     70     76     82     1  180.0000771  0.0000000  2
     67     70     76     83     1  180.0000771  0.0000000  2
     66     67     70     72     1  0.0000000  4.1840000  3
     66     67     70     76     1  0.0000000  0.6510304  3
     65     66     67     70     1  180.0000771  -3.3472000  2
     65     66     67     70     1  0.0000000  0.0000000  3
     64     61     59     79     1  0.0000000  0.0000000  1
     64     61     59     79     1  0.0000000  0.0000000  2
     64     61     59     79     1  0.0000000  0.0000000  3
     64     61     59     79     1  0.0000000  0.0000000  4
     64     61     59     79     1  0.0000000  0.0000000  5
     64     65     66     67     1  0.0000000  9.6232000  2
     64     65     66     67     1  0.0000000  2.5104000  3
     61     59     79     80     1  0.0000000  -0.4184000  1
     61     59     79     80     1  240.0001029  -1.2552000  2
     61     59     79     80     1  300.0001286  -0.8368000  3
     61     64     65     66     1  0.0000000  9.6232000  2
     61     64     65     66     1  0.0000000  2.5104000  3
     61     64     65     77     1  0.0000000  0.0000000  1
     61     64     65     77     1  0.0000000  0.8368000  2
     61     64     65     77     1  0.0000000  0.0000000  3
     61     64     65     77     1  0.0000000  0.0000000  4
     61     64     65     77     1  0.0000000  0.0000000  5
     61     64     65     78     1  0.0000000  0.0000000  1
     61     64     65     78     1  0.0000000  0.8368000  2
     61     64     65     78     1  0.0000000  0.0000000  3
     61     64     65     78     1  0.0000000  0.0000000  4
     61     64     65     78     1  0.0000000  0.0000000  5
     59     61     64     65     1  180.0000771  -3.3472000  2
     59     61     64     65     1  0.0000000  0.0000000  3
     59     79     80     81     1  180.0000771  5.8576000  1
     59     79     80     81     1  180.0000771  11.2968000  2
     59     79     80    118     1  180.0000771  11.2968000  2
     56     59     61     64     1  180.0000771  3.3472000  1
     56     59     61     64     1  120.0000514  0.8368000  2
     56     59     61     64     1  60.0000257  1.6736000  3
     56     59     79     80     1  0.0000000  -0.4184000  1
     56     59     79     80     1  240.0001029  -1.2552000  2
     56     59     79     80     1  300.0001286  -0.8368000  3
     55     56     59     61     1  0.0000000  0.0000000  1
     55     56     59     61     1  0.0000000  0.0000000  2
     55     56     59     61     1  0.0000000  0.0000000  3
     55     56     59     61     1  0.0000000  0.0000000  4
     55     56     59     61     1  0.0000000  0.0000000  5
     55     56     59     79     1  180.0000771  -0.4184000  1
     55     56     59     79     1  0.0000000  1.2552000  2
     55     56     59     79     1  0.0000000  4.1840000  3
     54     53     55     56     1  180.0000771  5.8576000  1
     54     53     55     56     1  180.0000771  11.2968000  2
     53     55     56     59     1  0.0000000  -0.4184000  1
     53     55     56     59     1  240.0001029  -1.2552000  2
     53     55     56     59     1  300.0001286  -0.8368000  3
    121    124    127    130     1  0.0000000  0.4184000  1
    121    124    127    130     1  0.0000000  0.4184000  2
    121    124    127    130     1  0.0000000  1.2552000  3
    121    124    127    130     1  0.0000000  0.4184000  4
    121    124    127    130     1  0.0000000  0.4184000  5
    110    112    115    118     1  0.0000000  0.0000000  1
    110    112    115    118     1  0.0000000  0.0000000  2
    110    112    115    118     1  0.0000000  2.0920000  3
    110    112    115    118     1  0.0000000  0.0000000  4
    110    112    115    118     1  0.0000000  0.4184000  5
    108    110    112    115     1  0.0000000  2.5104000  1
    108    110    112    115     1  180.0000771  1.6736000  2
    108    110    112    115     1  180.0000771  1.6736000  3
    108    110    112    115     1  180.0000771  0.8368000  4
    108    110    112    115     1  180.0000771  0.8368000  5
    105    108    110    112     1  180.0000771  7.1128000  1
    105    108    110    112     1  180.0000771  13.8072000  2
    105    108    110    112     1  0.0000000  2.5104000  3
    105    108    110    112     1  0.0000000  0.0000000  4
    105    108    110    112     1  0.0000000  0.0000000  5
    103    105    108    110     1  0.0000000  0.0000000  1
    103    105    108    110     1  0.0000000  0.0000000  2
    103    105    108    110     1  0.0000000  0.0000000  3
    103    105    108    110     1  0.0000000  0.0000000  4
    103    105    108    110     1  0.0000000  0.0000000  5
    101    103    105    108     1  0.0000000  0.0000000  1
    101    103    105    108     1  0.0000000  0.0000000  2
    101    103    105    108     1  0.0000000  0.0000000  3
    101    103    105    108     1  0.0000000  0.0000000  4
    101    103    105    108     1  0.0000000  0.0000000  5
     98    101    103    105     1  180.0000771  7.1128000  1
     98    101    103    105     1  180.0000771  13.8072000  2
     98    101    103    105     1  0.0000000  2.5104000  3
     98    101    103    105     1  0.0000000  0.0000000  4
     98    101    103    105     1  0.0000000  0.0000000  5
     96     98    101    103     1  0.0000000  0.0000000  1
     96     98    101    103     1  0.0000000  0.0000000  2
     96     98    101    103     1  0.0000000  0.0000000  3
     96     98    101    103     1  0.0000000  0.0000000  4
     96     98    101    103     1  0.0000000  0.0000000  5
     94     96     98    101     1  0.0000000  0.0000000  1
     94     96     98    101     1  0.0000000  0.0000000  2
     94     96     98    101     1  0.0000000  0.0000000  3
     94     96     98    101     1  0.0000000  0.0000000  4
     94     96     98    101     1  0.0000000  0.0000000  5
     91     94     96     98     1  180.0000771  7.1128000  1
     91     94     96     98     1  180.0000771  13.8072000  2
     91     94     96     98     1  0.0000000  2.5104000  3
     91     94     96     98     1  0.0000000  0.0000000  4
     91     94     96     98     1  0.0000000  0.0000000  5
     89     87     84    121     1  0.0000000  2.5104000  1
     89     87     84    121     1  180.0000771  1.6736000  2
     89     87     84    121     1  180.0000771  1.6736000  3
     89     87     84    121     1  180.0000771  0.8368000  4
     89     87     84    121     1  180.0000771  0.8368000  5
     89     91     94     96     1  0.0000000  0.0000000  1
     89     91     94     96     1  0.0000000  0.0000000  2
     89     91     94     96     1  0.0000000  0.0000000  3
     89     91     94     96     1  0.0000000  0.0000000  4
     89     91     94     96     1  0.0000000  0.0000000  5
     87     84    121    124     1  0.0000000  0.0000000  1
     87     84    121    124     1  0.0000000  0.0000000  2
     87     84    121    124     1  0.0000000  2.0920000  3
     87     84    121    124     1  0.0000000  0.0000000  4
     87     84    121    124     1  0.0000000  0.4184000  5
     87     89     91     94     1  0.0000000  0.0000000  1
     87     89     91     94     1  0.0000000  0.0000000  2
     87     89     91     94     1  0.0000000  0.0000000  3
     87     89     91     94     1  0.0000000  0.0000000  4
     87     89     91     94     1  0.0000000  0.0000000  5
     84     87     89     91     1  180.0000771  7.1128000  1
     84     87     89     91     1  180.0000771  13.8072000  2
     84     87     89     91     1  0.0000000  2.5104000  3
     84     87     89     91     1  0.0000000  0.0000000  4
     84     87     89     91     1  0.0000000  0.0000000  5
     84    121    124    127     1  0.0000000  0.4184000  1
     84    121    124    127     1  0.0000000  0.4184000  2
     84    121    124    127     1  0.0000000  1.2552000  3
     84    121    124    127     1  0.0000000  0.4184000  4
     84    121    124    127     1  0.0000000  0.4184000  5
    118     81     80     79     4  180.0000771  43.9320000  2
     70     82     76     83     4  180.0000771  4.6024000  2
     50     54     53     55     4  180.0000771  43.9320000  2
     52     50     53     54     1  0.0000000  3.3472000  1
     52     50     53     54     1  180.0000771  0.3347200  3
     52     50     53     55     1  180.0000771  0.0000000  2
     51     50     53     54     1  0.0000000  3.3472000  1
     51     50     53     54     1  180.0000771  0.3347200  3
     51     50     53     55     1  180.0000771  0.0000000  2
     49     47     50     51     1  0.0000000  0.6276000  3
     49     47     50     52     1  0.0000000  0.6276000  3
     49     47     50     53     1  0.0000000  0.6527040  3
     48     47     50     51     1  0.0000000  0.6276000  3
     48     47     50     52     1  0.0000000  0.6276000  3
     48     47     50     53     1  0.0000000  0.6527040  3
     46     44     47     50     1  0.0000000  0.6694400  3
     46     44     47     49     1  0.0000000  0.6276000  3
     46     44     47     48     1  0.0000000  0.6276000  3
     45     44     47     50     1  0.0000000  0.6694400  3
     45     44     47     49     1  0.0000000  0.6276000  3
     45     44     47     48     1  0.0000000  0.6276000  3
     44     47     50     51     1  0.0000000  0.6694400  3
     44     47     50     52     1  0.0000000  0.6694400  3
     43     41     44     47     1  0.0000000  0.6694400  3
     43     41     44     45     1  0.0000000  0.6276000  3
     43     41     44     46     1  0.0000000  0.6276000  3
     42     41     44     47     1  0.0000000  0.6694400  3
     42     41     44     45     1  0.0000000  0.6276000  3
     42     41     44     46     1  0.0000000  0.6276000  3
     41     44     47     49     1  0.0000000  0.6694400  3
     41     44     47     48     1  0.0000000  0.6694400  3
     40     38     41     44     1  0.0000000  0.6694400  3
     40     38     41     43     1  0.0000000  0.6276000  3
     40     38     41     42     1  0.0000000  0.6276000  3
     39     38     41     44     1  0.0000000  0.6694400  3
     39     38     41     43     1  0.0000000  0.6276000  3
     39     38     41     42     1  0.0000000  0.6276000  3
     38     41     44     45     1  0.0000000  0.6694400  3
     38     41     44     46     1  0.0000000  0.6694400  3
     37     35     38     41     1  0.0000000  0.6694400  3
     37     35     38     39     1  0.0000000  0.6276000  3
     37     35     38     40     1  0.0000000  0.6276000  3
     36     35     38     41     1  0.0000000  0.6694400  3
     36     35     38     39     1  0.0000000  0.6276000  3
     36     35     38     40     1  0.0000000  0.6276000  3
     35     38     41     43     1  0.0000000  0.6694400  3
     35     38     41     42     1  0.0000000  0.6694400  3
     34     32     35     38     1  0.0000000  0.6694400  3
     34     32     35     37     1  0.0000000  0.6276000  3
     34     32     35     36     1  0.0000000  0.6276000  3
     33     32     35     38     1  0.0000000  0.6694400  3
     33     32     35     37     1  0.0000000  0.6276000  3
     33     32     35     36     1  0.0000000  0.6276000  3
     32     35     38     39     1  0.0000000  0.6694400  3
     32     35     38     40     1  0.0000000  0.6694400  3
     31     29     32     35     1  0.0000000  0.6694400  3
     31     29     32     33     1  0.0000000  0.6276000  3
     31     29     32     34     1  0.0000000  0.6276000  3
     30     29     32     35     1  0.0000000  0.6694400  3
     30     29     32     33     1  0.0000000  0.6276000  3
     30     29     32     34     1  0.0000000  0.6276000  3
     29     32     35     37     1  0.0000000  0.6694400  3
     29     32     35     36     1  0.0000000  0.6694400  3
     28     26     29     32     1  0.0000000  0.6694400  3
     28     26     29     31     1  0.0000000  0.6276000  3
     28     26     29     30     1  0.0000000  0.6276000  3
     27     26     29     32     1  0.0000000  0.6694400  3
     27     26     29     31     1  0.0000000  0.6276000  3
     27     26     29     30     1  0.0000000  0.6276000  3
     26     29     32     33     1  0.0000000  0.6694400  3
     26     29     32     34     1  0.0000000  0.6694400  3
     25     23     26     29     1  0.0000000  0.6694400  3
     25     23     26     27     1  0.0000000  0.6276000  3
     25     23     26     28     1  0.0000000  0.6276000  3
     24     23     26     29     1  0.0000000  0.6694400  3
     24     23     26     27     1  0.0000000  0.6276000  3
     24     23     26     28     1  0.0000000  0.6276000  3
     23     26     29     31     1  0.0000000  0.6694400  3
     23     26     29     30     1  0.0000000  0.6694400  3
     22     20     23     26     1  0.0000000  0.6694400  3
     22     20     23     25     1  0.0000000  0.6276000  3
     22     20     23     24     1  0.0000000  0.6276000  3
     21     20     23     26     1  0.0000000  0.6694400  3
     21     20     23     25     1  0.0000000  0.6276000  3
     21     20     23     24     1  0.0000000  0.6276000  3
     20     23     26     27     1  0.0000000  0.6694400  3
     20     23     26     28     1  0.0000000  0.6694400  3
     19     17     20     23     1  0.0000000  0.6694400  3
     19     17     20     21     1  0.0000000  0.6276000  3
     19     17     20     22     1  0.0000000  0.6276000  3
     18     17     20     23     1  0.0000000  0.6694400  3
     18     17     20     21     1  0.0000000  0.6276000  3
     18     17     20     22     1  0.0000000  0.6276000  3
     17     20     23     25     1  0.0000000  0.6694400  3
     17     20     23     24     1  0.0000000  0.6694400  3
     16     14     17     20     1  0.0000000  0.6694400  3
     16     14     17     19     1  0.0000000  0.6276000  3
     16     14     17     18     1  0.0000000  0.6276000  3
     15     14     17     20     1  0.0000000  0.6694400  3
     15     14     17     19     1  0.0000000  0.6276000  3
     15     14     17     18     1  0.0000000  0.6276000  3
     14     17     20     21     1  0.0000000  0.6694400  3
     14     17     20     22     1  0.0000000  0.6694400  3
     13     11     14     17     1  0.0000000  0.6694400  3
     13     11     14     15     1  0.0000000  0.6276000  3
     13     11     14     16     1  0.0000000  0.6276000  3
     12     11     14     17     1  0.0000000  0.6694400  3
     12     11     14     15     1  0.0000000  0.6276000  3
     12     11     14     16     1  0.0000000  0.6276000  3
     11     14     17     19     1  0.0000000  0.6694400  3
     11     14     17     18     1  0.0000000  0.6694400  3
     10      8     11     14     1  0.0000000  0.6694400  3
     10      8     11     13     1  0.0000000  0.6276000  3
     10      8     11     12     1  0.0000000  0.6276000  3
      9      8     11     14     1  0.0000000  0.6694400  3
      9      8     11     13     1  0.0000000  0.6276000  3
      9      8     11     12     1  0.0000000  0.6276000  3
      8     11     14     15     1  0.0000000  0.6694400  3
      8     11     14     16     1  0.0000000  0.6694400  3
      7      5      8     11     1  0.0000000  0.6694400  3
      7      5      8      9     1  0.0000000  0.6276000  3
      7      5      8     10     1  0.0000000  0.6276000  3
      6      5      8     11     1  0.0000000  0.6694400  3
      6      5      8      9     1  0.0000000  0.6276000  3
      6      5      8     10     1  0.0000000  0.6276000  3
      5      8     11     13     1  0.0000000  0.6694400  3
      5      8     11     12     1  0.0000000  0.6694400  3
      4      1      5      8     1  0.0000000  0.6694400  3
      4      1      5      7     1  0.0000000  0.6276000  3
      4      1      5      6     1  0.0000000  0.6276000  3
      3      1      5      8     1  0.0000000  0.6694400  3
      3      1      5      7     1  0.0000000  0.6276000  3
      3      1      5      6     1  0.0000000  0.6276000  3
      2      1      5      8     1  0.0000000  0.6694400  3
      2      1      5      7     1  0.0000000  0.6276000  3
      2      1      5      6     1  0.0000000  0.6276000  3
      1      5      8      9     1  0.0000000  0.6694400  3
      1      5      8     10     1  0.0000000  0.6694400  3
     81     80    118    119     1  0.0000000  3.3472000  1
     81     80    118    119     1  180.0000771  0.3347200  3
     81     80    118    120     1  0.0000000  3.3472000  1
     81     80    118    120     1  180.0000771  0.3347200  3
     80    118    115    116     1  0.0000000  0.6527040  3
     80    118    115    117     1  0.0000000  0.6527040  3
     79     80    118    119     1  180.0000771  0.0000000  2
     79     80    118    120     1  180.0000771  0.0000000  2
     75     72     70     76     1  0.0000000  0.6510304  3
     74     72     70     76     1  0.0000000  0.6510304  3
     73     72     70     76     1  0.0000000  0.6510304  3
     71     70     72     73     1  0.0000000  0.6510304  3
     71     70     72     74     1  0.0000000  0.6510304  3
     71     70     72     75     1  0.0000000  0.6510304  3
     71     70     76     82     1  180.0000771  0.0000000  2
     71     70     76     83     1  180.0000771  0.0000000  2
     69     67     70     71     1  0.0000000  0.6527040  3
     69     67     70     72     1  0.0000000  0.6527040  3
     69     67     70     76     1  0.0000000  0.6510304  3
     68     67     70     71     1  0.0000000  0.6527040  3
     68     67     70     72     1  0.0000000  0.6527040  3
     68     67     70     76     1  0.0000000  0.6510304  3
     67     70     72     73     1  0.0000000  0.6510304  3
     67     70     72     74     1  0.0000000  0.6510304  3
     67     70     72     75     1  0.0000000  0.6510304  3
     66     67     70     71     1  0.0000000  0.6527040  3
     65     66     67     68     1  0.0000000  0.0000000  1
     65     66     67     68     1  0.0000000  0.0000000  2
     65     66     67     68     1  0.0000000  1.6024720  3
     65     66     67     68     1  0.0000000  0.0000000  4
     65     66     67     68     1  0.0000000  0.0000000  5
     65     66     67     69     1  0.0000000  0.0000000  1
     65     66     67     69     1  0.0000000  0.0000000  2
     65     66     67     69     1  0.0000000  1.6024720  3
     65     66     67     69     1  0.0000000  0.0000000  4
     65     66     67     69     1  0.0000000  0.0000000  5
     63     61     59     79     1  0.0000000  1.0460000  1
     63     61     59     79     1  0.0000000  0.0000000  3
     63     61     64     65     1  0.0000000  0.0000000  1
     63     61     64     65     1  0.0000000  0.0000000  2
     63     61     64     65     1  0.0000000  1.6024720  3
     63     61     64     65     1  0.0000000  0.0000000  4
     63     61     64     65     1  0.0000000  0.0000000  5
     62     61     59     79     1  0.0000000  1.0460000  1
     62     61     59     79     1  0.0000000  0.0000000  3
     62     61     64     65     1  0.0000000  0.0000000  1
     62     61     64     65     1  0.0000000  0.0000000  2
     62     61     64     65     1  0.0000000  1.6024720  3
     62     61     64     65     1  0.0000000  0.0000000  4
     62     61     64     65     1  0.0000000  0.0000000  5
     60     59     61     62     1  0.0000000  0.6527040  3
     60     59     61     63     1  0.0000000  0.6527040  3
     60     59     61     64     1  0.0000000  1.0460000  1
     60     59     61     64     1  0.0000000  0.0000000  3
     60     59     79     80     1  0.0000000  1.6024720  3
     58     56     59     60     1  0.0000000  0.6527040  3
     58     56     59     61     1  0.0000000  0.6527040  3
     58     56     59     79     1  0.0000000  1.0460000  1
     58     56     59     79     1  0.0000000  0.0000000  3
     57     56     59     60     1  0.0000000  0.6527040  3
     57     56     59     61     1  0.0000000  0.6527040  3
     57     56     59     79     1  0.0000000  1.0460000  1
     57     56     59     79     1  0.0000000  0.0000000  3
     56     59     61     62     1  0.0000000  0.6527040  3
     56     59     61     63     1  0.0000000  0.6527040  3
     55     56     59     60     1  0.0000000  1.0460000  1
     55     56     59     60     1  0.0000000  0.0000000  3
     53     55     56     57     1  0.0000000  1.6024720  3
     53     55     56     58     1  0.0000000  1.6024720  3
    129    127    130    131     1  0.0000000  0.6276000  3
    129    127    130    132     1  0.0000000  0.6276000  3
    129    127    130    133     1  0.0000000  0.6276000  3
    128    127    130    131     1  0.0000000  0.6276000  3
    128    127    130    132     1  0.0000000  0.6276000  3
    128    127    130    133     1  0.0000000  0.6276000  3
    126    124    127    128     1  0.0000000  0.6276000  3
    126    124    127    129     1  0.0000000  0.6276000  3
    126    124    127    130     1  0.0000000  0.6694400  3
    125    124    127    128     1  0.0000000  0.6276000  3
    125    124    127    129     1  0.0000000  0.6276000  3
    125    124    127    130     1  0.0000000  0.6694400  3
    124    127    130    131     1  0.0000000  0.6694400  3
    124    127    130    132     1  0.0000000  0.6694400  3
    124    127    130    133     1  0.0000000  0.6694400  3
    123    121    124    125     1  0.0000000  0.6276000  3
    123    121    124    126     1  0.0000000  0.6276000  3
    123    121    124    127     1  0.0000000  0.6694400  3
    122    121    124    125     1  0.0000000  0.6276000  3
    122    121    124    126     1  0.0000000  0.6276000  3
    122    121    124    127     1  0.0000000  0.6694400  3
    121    124    127    128     1  0.0000000  0.6694400  3
    121    124    127    129     1  0.0000000  0.6694400  3
    117    115    118    119     1  0.0000000  0.6276000  3
    117    115    118    120     1  0.0000000  0.6276000  3
    116    115    118    119     1  0.0000000  0.6276000  3
    116    115    118    120     1  0.0000000  0.6276000  3
    114    112    115    116     1  0.0000000  0.6276000  3
    114    112    115    117     1  0.0000000  0.6276000  3
    114    112    115    118     1  0.0000000  0.6694400  3
    113    112    115    116     1  0.0000000  0.6276000  3
    113    112    115    117     1  0.0000000  0.6276000  3
    113    112    115    118     1  0.0000000  0.6694400  3
    112    115    118    119     1  0.0000000  0.6694400  3
    112    115    118    120     1  0.0000000  0.6694400  3
    111    110    112    113     1  0.0000000  0.0000000  2
    111    110    112    114     1  0.0000000  0.0000000  2
    111    110    112    115     1  0.0000000  0.0000000  2
    110    112    115    116     1  0.0000000  0.6510304  3
    110    112    115    117     1  0.0000000  0.6510304  3
    109    108    110    111     1  180.0000771  27.8236000  2
    109    108    110    112     1  180.0000771  27.8236000  2
    108    110    112    113     1  0.0000000  4.8116000  1
    108    110    112    113     1  180.0000771  1.5899200  3
    108    110    112    114     1  0.0000000  4.8116000  1
    108    110    112    114     1  180.0000771  1.5899200  3
    107    105    108    109     1  0.0000000  0.0000000  2
    107    105    108    110     1  0.0000000  4.8116000  1
    107    105    108    110     1  180.0000771  1.5899200  3
    106    105    108    109     1  0.0000000  0.0000000  2
    106    105    108    110     1  0.0000000  4.8116000  1
    106    105    108    110     1  180.0000771  1.5899200  3
    105    108    110    111     1  180.0000771  27.8236000  2
    104    103    105    106     1  0.0000000  0.0000000  2
    104    103    105    107     1  0.0000000  0.0000000  2
    104    103    105    108     1  0.0000000  0.0000000  2
    103    105    108    109     1  0.0000000  0.0000000  2
    102    101    103    104     1  180.0000771  27.8236000  2
    102    101    103    105     1  180.0000771  27.8236000  2
    101    103    105    106     1  0.0000000  4.8116000  1
    101    103    105    106     1  180.0000771  1.5899200  3
    101    103    105    107     1  0.0000000  4.8116000  1
    101    103    105    107     1  180.0000771  1.5899200  3
    100     98    101    102     1  0.0000000  0.0000000  2
    100     98    101    103     1  0.0000000  4.8116000  1
    100     98    101    103     1  180.0000771  1.5899200  3
     99     98    101    102     1  0.0000000  0.0000000  2
     99     98    101    103     1  0.0000000  4.8116000  1
     99     98    101    103     1  180.0000771  1.5899200  3
     98    101    103    104     1  180.0000771  27.8236000  2
     97     96     98     99     1  0.0000000  0.0000000  2
     97     96     98    100     1  0.0000000  0.0000000  2
     97     96     98    101     1  0.0000000  0.0000000  2
     96     98    101    102     1  0.0000000  0.0000000  2
     95     94     96     97     1  180.0000771  27.8236000  2
     95     94     96     98     1  180.0000771  27.8236000  2
     94     96     98     99     1  0.0000000  4.8116000  1
     94     96     98     99     1  180.0000771  1.5899200  3
     94     96     98    100     1  0.0000000  4.8116000  1
     94     96     98    100     1  180.0000771  1.5899200  3
     93     91     94     95     1  0.0000000  0.0000000  2
     93     91     94     96     1  0.0000000  4.8116000  1
     93     91     94     96     1  180.0000771  1.5899200  3
     92     91     94     95     1  0.0000000  0.0000000  2
     92     91     94     96     1  0.0000000  4.8116000  1
     92     91     94     96     1  180.0000771  1.5899200  3
     91     94     96     97     1  180.0000771  27.8236000  2
     90     89     91     92     1  0.0000000  0.0000000  2
     90     89     91     93     1  0.0000000  0.0000000  2
     90     89     91     94     1  0.0000000  0.0000000  2
     89     91     94     95     1  0.0000000  0.0000000  2
     88     87     84    121     1  0.0000000  0.0000000  2
     88     87     89     90     1  180.0000771  27.8236000  2
     88     87     89     91     1  180.0000771  27.8236000  2
     87     84    121    122     1  0.0000000  0.6510304  3
     87     84    121    123     1  0.0000000  0.6510304  3
     87     89     91     92     1  0.0000000  4.8116000  1
     87     89     91     92     1  180.0000771  1.5899200  3
     87     89     91     93     1  0.0000000  4.8116000  1
     87     89     91     93     1  180.0000771  1.5899200  3
     86     84     87     88     1  0.0000000  0.0000000  2
     86     84     87     89     1  0.0000000  4.8116000  1
     86     84     87     89     1  180.0000771  1.5899200  3
     86     84    121    122     1  0.0000000  0.6276000  3
     86     84    121    123     1  0.0000000  0.6276000  3
     86     84    121    124     1  0.0000000  0.6694400  3
     85     84     87     88     1  0.0000000  0.0000000  2
     85     84     87     89     1  0.0000000  4.8116000  1
     85     84     87     89     1  180.0000771  1.5899200  3
     85     84    121    122     1  0.0000000  0.6276000  3
     85     84    121    123     1  0.0000000  0.6276000  3
     85     84    121    124     1  0.0000000  0.6694400  3
     84     87     89     90     1  180.0000771  27.8236000  2
     84    121    124    125     1  0.0000000  0.6694400  3
     84    121    124    126     1  0.0000000  0.6694400  3
    108    112    110    111     4  180.0000771  4.6024000  2
    110    105    108    109     4  180.0000771  4.6024000  2
    101    105    103    104     4  180.0000771  4.6024000  2
    103     98    101    102     4  180.0000771  4.6024000  2
     94     98     96     97     4  180.0000771  4.6024000  2
     96     91     94     95     4  180.0000771  4.6024000  2
     87     91     89     90     4  180.0000771  4.6024000  2
     89     84     87     88     4  180.0000771  4.6024000  2
