; Exact Amber Lipid21 v1.0 topology converted by ParmEd
; Explicit [pairs] preserve Lipid21-specific 1-4 scaling.

[ moleculetype ]
; Name nrexcl
SOPE 3

[ atoms ]
; nr type resnr residue atom cgnr charge mass
1 L21_cD 1 SOPE C18X 1 -0.12006900 12.010000
2 L21_hL 1 SOPE H18X 2 0.02793800 1.008000
3 L21_hL 1 SOPE H18Y 3 0.02793800 1.008000
4 L21_hL 1 SOPE H18Z 4 0.02793800 1.008000
5 L21_cD 1 SOPE C17X 5 0.02066500 12.010000
6 L21_hL 1 SOPE H17X 6 0.00848300 1.008000
7 L21_hL 1 SOPE H17Y 7 0.00848300 1.008000
8 L21_cD 1 SOPE C16X 8 -0.02765400 12.010000
9 L21_hL 1 SOPE H16X 9 0.01562700 1.008000
10 L21_hL 1 SOPE H16Y 10 0.01562700 1.008000
11 L21_cD 1 SOPE C15X 11 -0.03244400 12.010000
12 L21_hL 1 SOPE H15X 12 0.01025300 1.008000
13 L21_hL 1 SOPE H15Y 13 0.01025300 1.008000
14 L21_cD 1 SOPE C14X 14 -0.01348900 12.010000
15 L21_hL 1 SOPE H14X 15 0.01007300 1.008000
16 L21_hL 1 SOPE H14Y 16 0.01007300 1.008000
17 L21_cD 1 SOPE C13X 17 -0.01159000 12.010000
18 L21_hL 1 SOPE H13X 18 0.00602200 1.008000
19 L21_hL 1 SOPE H13Y 19 0.00602200 1.008000
20 L21_cD 1 SOPE C12X 20 -0.01915300 12.010000
21 L21_hL 1 SOPE H12X 21 0.00819800 1.008000
22 L21_hL 1 SOPE H12Y 22 0.00819800 1.008000
23 L21_cD 1 SOPE C11X 23 -0.01709300 12.010000
24 L21_hL 1 SOPE H11X 24 0.01020600 1.008000
25 L21_hL 1 SOPE H11Y 25 0.01020600 1.008000
26 L21_cD 1 SOPE C10X 26 -0.02641800 12.010000
27 L21_hL 1 SOPE H10X 27 0.01082500 1.008000
28 L21_hL 1 SOPE H10Y 28 0.01082500 1.008000
29 L21_cD 1 SOPE C9X 29 -0.01799700 12.010000
30 L21_hL 1 SOPE H9X 30 0.00959500 1.008000
31 L21_hL 1 SOPE H9Y 31 0.00959500 1.008000
32 L21_cD 1 SOPE C8X 32 -0.01462300 12.010000
33 L21_hL 1 SOPE H8X 33 0.00732600 1.008000
34 L21_hL 1 SOPE H8Y 34 0.00732600 1.008000
35 L21_cD 1 SOPE C7X 35 -0.01946900 12.010000
36 L21_hL 1 SOPE H7X 36 0.00929200 1.008000
37 L21_hL 1 SOPE H7Y 37 0.00929200 1.008000
38 L21_cD 1 SOPE C6X 38 -0.03762700 12.010000
39 L21_hL 1 SOPE H6X 39 0.01774000 1.008000
40 L21_hL 1 SOPE H6Y 40 0.01774000 1.008000
41 L21_cD 1 SOPE C5X 41 -0.01344300 12.010000
42 L21_hL 1 SOPE H5X 42 0.00819100 1.008000
43 L21_hL 1 SOPE H5Y 43 0.00819100 1.008000
44 L21_cD 1 SOPE C4X 44 -0.05979200 12.010000
45 L21_hL 1 SOPE H4X 45 0.02424100 1.008000
46 L21_hL 1 SOPE H4Y 46 0.02424100 1.008000
47 L21_cD 1 SOPE C3X 47 -0.00012800 12.010000
48 L21_hL 1 SOPE H3X 48 0.01388600 1.008000
49 L21_hL 1 SOPE H3Y 49 0.01388600 1.008000
50 L21_cD 1 SOPE C2X 50 -0.11702000 12.010000
51 L21_hL 1 SOPE H2X 51 0.05180700 1.008000
52 L21_hL 1 SOPE H2Y 52 0.05180700 1.008000
53 L21_cC 1 SOPE C11 53 0.88835900 12.010000
54 L21_oC 1 SOPE O12 54 -0.65080200 16.000000
55 L21_oS 1 SOPE O11 55 -0.59382600 16.000000
56 L21_cA 1 SOPE C1 56 0.27377600 12.010000
57 L21_hE 1 SOPE HR 57 0.04457400 1.008000
58 L21_hE 1 SOPE HS 58 0.04457400 1.008000
59 L21_cA 1 SOPE C2 59 0.33900400 12.010000
60 L21_hE 1 SOPE HX 60 0.03284300 1.008000
61 L21_cA 1 SOPE C3 61 0.04096700 12.010000
62 L21_hE 1 SOPE HA 62 0.09099400 1.008000
63 L21_hE 1 SOPE HB 63 0.09099400 1.008000
64 L21_oT 1 SOPE O31 64 -0.54662300 16.000000
65 L21_pA 1 SOPE P31 65 1.37365600 30.970000
66 L21_oT 1 SOPE O32 66 -0.51454200 16.000000
67 L21_cA 1 SOPE C31 67 0.07515900 12.010000
68 L21_hE 1 SOPE H1A 68 0.09151600 1.008000
69 L21_hE 1 SOPE H1B 69 0.09151600 1.008000
70 L21_cA 1 SOPE C32 70 0.07731900 12.010000
71 L21_hX 1 SOPE H2A 71 0.09163000 1.008000
72 L21_hX 1 SOPE H2B 72 0.09163000 1.008000
73 L21_nA 1 SOPE N31 73 -0.36813200 14.010000
74 L21_hN 1 SOPE HN1A 74 0.34854900 1.008000
75 L21_hN 1 SOPE HN1B 75 0.34854900 1.008000
76 L21_hN 1 SOPE HN1C 76 0.34854900 1.008000
77 L21_oP 1 SOPE O33 77 -0.87744700 16.000000
78 L21_oP 1 SOPE O34 78 -0.87744700 16.000000
79 L21_oS 1 SOPE O21 79 -0.57548000 16.000000
80 L21_cC 1 SOPE C21 80 0.86934000 12.010000
81 L21_oC 1 SOPE O22 81 -0.64919900 16.000000
82 L21_cD 1 SOPE C2Y 82 -0.14341800 12.010000
83 L21_hL 1 SOPE H2U 83 0.04286100 1.008000
84 L21_hL 1 SOPE H2V 84 0.04286100 1.008000
85 L21_cD 1 SOPE C3Y 85 0.00161900 12.010000
86 L21_hL 1 SOPE H3U 86 0.01952900 1.008000
87 L21_hL 1 SOPE H3V 87 0.01952900 1.008000
88 L21_cD 1 SOPE C4Y 88 -0.02296000 12.010000
89 L21_hL 1 SOPE H4U 89 0.01813400 1.008000
90 L21_hL 1 SOPE H4V 90 0.01813400 1.008000
91 L21_cD 1 SOPE C5Y 91 -0.01669200 12.010000
92 L21_hL 1 SOPE H5U 92 0.00869000 1.008000
93 L21_hL 1 SOPE H5V 93 0.00869000 1.008000
94 L21_cD 1 SOPE C6Y 94 -0.02378900 12.010000
95 L21_hL 1 SOPE H6U 95 0.00926600 1.008000
96 L21_hL 1 SOPE H6V 96 0.00926600 1.008000
97 L21_cD 1 SOPE C7Y 97 -0.01749500 12.010000
98 L21_hL 1 SOPE H7U 98 0.01959800 1.008000
99 L21_hL 1 SOPE H7V 99 0.01959800 1.008000
100 L21_cD 1 SOPE C8Y 100 0.03177500 12.010000
101 L21_hL 1 SOPE H8U 101 0.03268500 1.008000
102 L21_hL 1 SOPE H8V 102 0.03268500 1.008000
103 L21_cB 1 SOPE C9Y 103 -0.24422800 12.010000
104 L21_hB 1 SOPE H9U 104 0.13151200 1.008000
105 L21_cB 1 SOPE C10Y 105 -0.23928400 12.010000
106 L21_hB 1 SOPE H10U 106 0.12687800 1.008000
107 L21_cD 1 SOPE C11Y 107 0.02905900 12.010000
108 L21_hL 1 SOPE H11U 108 0.03353100 1.008000
109 L21_hL 1 SOPE H11V 109 0.03353100 1.008000
110 L21_cD 1 SOPE C12Y 110 -0.02635300 12.010000
111 L21_hL 1 SOPE H12U 111 0.01971700 1.008000
112 L21_hL 1 SOPE H12V 112 0.01971700 1.008000
113 L21_cD 1 SOPE C13Y 113 -0.01825700 12.010000
114 L21_hL 1 SOPE H13U 114 0.01380000 1.008000
115 L21_hL 1 SOPE H13V 115 0.01380000 1.008000
116 L21_cD 1 SOPE C14Y 116 -0.02484900 12.010000
117 L21_hL 1 SOPE H14U 117 0.00857200 1.008000
118 L21_hL 1 SOPE H14V 118 0.00857200 1.008000
119 L21_cD 1 SOPE C15Y 119 -0.02324700 12.010000
120 L21_hL 1 SOPE H15U 120 0.01040300 1.008000
121 L21_hL 1 SOPE H15V 121 0.01040300 1.008000
122 L21_cD 1 SOPE C16Y 122 -0.01248800 12.010000
123 L21_hL 1 SOPE H16U 123 0.01365900 1.008000
124 L21_hL 1 SOPE H16V 124 0.01365900 1.008000
125 L21_cD 1 SOPE C17Y 125 0.00868400 12.010000
126 L21_hL 1 SOPE H17U 126 0.01002600 1.008000
127 L21_hL 1 SOPE H17V 127 0.01002600 1.008000
128 L21_cD 1 SOPE C18Y 128 -0.11729000 12.010000
129 L21_hL 1 SOPE H18U 129 0.02662700 1.008000
130 L21_hL 1 SOPE H18V 130 0.02662700 1.008000
131 L21_hL 1 SOPE H18W 131 0.02662700 1.008000

[ bonds ]
;    ai     aj funct         c0         c1         c2         c3
     50     53     1   0.15080 274721.440000
     47     50     1   0.15350 253634.080000
     44     47     1   0.15350 253634.080000
     41     44     1   0.15350 253634.080000
     38     41     1   0.15350 253634.080000
     35     38     1   0.15350 253634.080000
     32     35     1   0.15350 253634.080000
     29     32     1   0.15350 253634.080000
     26     29     1   0.15350 253634.080000
     23     26     1   0.15350 253634.080000
     20     23     1   0.15350 253634.080000
     17     20     1   0.15350 253634.080000
     14     17     1   0.15350 253634.080000
     11     14     1   0.15350 253634.080000
      8     11     1   0.15350 253634.080000
      5      8     1   0.15350 253634.080000
      1      5     1   0.15350 253634.080000
     80     81     1   0.12140 542246.400000
     80     82     1   0.15080 274721.440000
     79     80     1   0.13430 344175.840000
     70     73     1   0.14990 245684.480000
     67     70     1   0.15350 253634.080000
     66     67     1   0.14390 252295.200000
     65     66     1   0.16100 192464.000000
     65     77     1   0.14800 439320.000000
     65     78     1   0.14800 439320.000000
     64     65     1   0.16100 192464.000000
     61     64     1   0.14390 252295.200000
     59     61     1   0.15350 253634.080000
     59     79     1   0.14390 252295.200000
     56     59     1   0.15350 253634.080000
     55     56     1   0.14390 252295.200000
     53     54     1   0.12140 542246.400000
     53     55     1   0.13430 344175.840000
    125    128     1   0.15350 253634.080000
    122    125     1   0.15350 253634.080000
    119    122     1   0.15350 253634.080000
    116    119     1   0.15350 253634.080000
    113    116     1   0.15350 253634.080000
    110    113     1   0.15350 253634.080000
    107    110     1   0.15350 253634.080000
    105    107     1   0.15080 274721.440000
    103    105     1   0.13240 493460.960000
    100    103     1   0.15080 274721.440000
     97    100     1   0.15350 253634.080000
     94     97     1   0.15350 253634.080000
     91     94     1   0.15350 253634.080000
     88     91     1   0.15350 253634.080000
     85     88     1   0.15350 253634.080000
     82     85     1   0.15350 253634.080000
     50     51     1   0.10920 282252.640000
     50     52     1   0.10920 282252.640000
     47     49     1   0.10920 282252.640000
     47     48     1   0.10920 282252.640000
     44     45     1   0.10920 282252.640000
     44     46     1   0.10920 282252.640000
     41     43     1   0.10920 282252.640000
     41     42     1   0.10920 282252.640000
     38     39     1   0.10920 282252.640000
     38     40     1   0.10920 282252.640000
     35     37     1   0.10920 282252.640000
     35     36     1   0.10920 282252.640000
     32     33     1   0.10920 282252.640000
     32     34     1   0.10920 282252.640000
     29     31     1   0.10920 282252.640000
     29     30     1   0.10920 282252.640000
     26     27     1   0.10920 282252.640000
     26     28     1   0.10920 282252.640000
     23     25     1   0.10920 282252.640000
     23     24     1   0.10920 282252.640000
     20     21     1   0.10920 282252.640000
     20     22     1   0.10920 282252.640000
     17     19     1   0.10920 282252.640000
     17     18     1   0.10920 282252.640000
     14     15     1   0.10920 282252.640000
     14     16     1   0.10920 282252.640000
     11     13     1   0.10920 282252.640000
     11     12     1   0.10920 282252.640000
      8      9     1   0.10920 282252.640000
      8     10     1   0.10920 282252.640000
      5      7     1   0.10920 282252.640000
      5      6     1   0.10920 282252.640000
      1      4     1   0.10920 282252.640000
      1      3     1   0.10920 282252.640000
      1      2     1   0.10920 282252.640000
     73     74     1   0.10330 308779.200000
     73     75     1   0.10330 308779.200000
     73     76     1   0.10330 308779.200000
     70     71     1   0.10910 283424.160000
     70     72     1   0.10910 283424.160000
     67     68     1   0.10930 281081.120000
     67     69     1   0.10930 281081.120000
     61     62     1   0.10930 281081.120000
     61     63     1   0.10930 281081.120000
     59     60     1   0.10930 281081.120000
     56     57     1   0.10930 281081.120000
     56     58     1   0.10930 281081.120000
    128    129     1   0.10920 282252.640000
    128    130     1   0.10920 282252.640000
    128    131     1   0.10920 282252.640000
    125    126     1   0.10920 282252.640000
    125    127     1   0.10920 282252.640000
    122    123     1   0.10920 282252.640000
    122    124     1   0.10920 282252.640000
    119    120     1   0.10920 282252.640000
    119    121     1   0.10920 282252.640000
    116    117     1   0.10920 282252.640000
    116    118     1   0.10920 282252.640000
    113    114     1   0.10920 282252.640000
    113    115     1   0.10920 282252.640000
    110    111     1   0.10920 282252.640000
    110    112     1   0.10920 282252.640000
    107    108     1   0.10920 282252.640000
    107    109     1   0.10920 282252.640000
    105    106     1   0.10870 288110.240000
    103    104     1   0.10870 288110.240000
    100    101     1   0.10920 282252.640000
    100    102     1   0.10920 282252.640000
     97     98     1   0.10920 282252.640000
     97     99     1   0.10920 282252.640000
     94     95     1   0.10920 282252.640000
     94     96     1   0.10920 282252.640000
     91     92     1   0.10920 282252.640000
     91     93     1   0.10920 282252.640000
     88     89     1   0.10920 282252.640000
     88     90     1   0.10920 282252.640000
     85     86     1   0.10920 282252.640000
     85     87     1   0.10920 282252.640000
     82     83     1   0.10920 282252.640000
     82     84     1   0.10920 282252.640000


[ pairs ]
;    ai     aj funct         c0         c1         c2         c3
     50     56     1
     47     54     1
     47     55     1
     44     53     1
     41     50     1
     38     47     1
     35     44     1
     32     41     1
     29     38     1
     26     35     1
     23     32     1
     20     29     1
     17     26     1
     14     23     1
     11     20     1
      8     17     1
      5     14     1
      1     11     1
     81     85     1
     80     88     1
     79     85     1
     67     77     1
     67     78     1
     66     73     1
     65     70     1
     64     79     1
     64     67     1
     61     80     1
     61     66     1
     61     77     1
     61     78     1
     59     65     1
     59     81     1
     59     82     1
     56     64     1
     56     80     1
     55     61     1
     55     79     1
     54     56     1
     53     59     1
    119    128     1
    116    125     1
    113    122     1
    110    119     1
    107    116     1
    105    113     1
    103    110     1
    100    107     1
     97    105     1
     94    103     1
     91    100     1
     88     97     1
     85     94     1
     82     91     1
     52     54     1
     52     55     1
     51     54     1
     51     55     1
     49     51     1
     49     52     1
     49     53     1
     48     51     1
     48     52     1
     48     53     1
     46     50     1
     46     49     1
     46     48     1
     45     50     1
     45     49     1
     45     48     1
     44     51     1
     44     52     1
     43     47     1
     43     45     1
     43     46     1
     42     47     1
     42     45     1
     42     46     1
     41     49     1
     41     48     1
     40     44     1
     40     43     1
     40     42     1
     39     44     1
     39     43     1
     39     42     1
     38     45     1
     38     46     1
     37     41     1
     37     39     1
     37     40     1
     36     41     1
     36     39     1
     36     40     1
     35     43     1
     35     42     1
     34     38     1
     34     37     1
     34     36     1
     33     38     1
     33     37     1
     33     36     1
     32     39     1
     32     40     1
     31     35     1
     31     33     1
     31     34     1
     30     35     1
     30     33     1
     30     34     1
     29     37     1
     29     36     1
     28     32     1
     28     31     1
     28     30     1
     27     32     1
     27     31     1
     27     30     1
     26     33     1
     26     34     1
     25     29     1
     25     27     1
     25     28     1
     24     29     1
     24     27     1
     24     28     1
     23     31     1
     23     30     1
     22     26     1
     22     25     1
     22     24     1
     21     26     1
     21     25     1
     21     24     1
     20     27     1
     20     28     1
     19     23     1
     19     21     1
     19     22     1
     18     23     1
     18     21     1
     18     22     1
     17     25     1
     17     24     1
     16     20     1
     16     19     1
     16     18     1
     15     20     1
     15     19     1
     15     18     1
     14     21     1
     14     22     1
     13     17     1
     13     15     1
     13     16     1
     12     17     1
     12     15     1
     12     16     1
     11     19     1
     11     18     1
     10     14     1
     10     13     1
     10     12     1
      9     14     1
      9     13     1
      9     12     1
      8     15     1
      8     16     1
      7     11     1
      7      9     1
      7     10     1
      6     11     1
      6      9     1
      6     10     1
      5     13     1
      5     12     1
      4      8     1
      4      7     1
      4      6     1
      3      8     1
      3      7     1
      3      6     1
      2      8     1
      2      7     1
      2      6     1
      1      9     1
      1     10     1
     81     83     1
     81     84     1
     80     86     1
     80     87     1
     79     83     1
     79     84     1
     72     74     1
     72     75     1
     72     76     1
     71     74     1
     71     75     1
     71     76     1
     69     71     1
     69     72     1
     69     73     1
     68     71     1
     68     72     1
     68     73     1
     67     74     1
     67     75     1
     67     76     1
     66     71     1
     66     72     1
     65     68     1
     65     69     1
     63     79     1
     63     65     1
     62     79     1
     62     65     1
     60     62     1
     60     63     1
     60     64     1
     60     80     1
     58     60     1
     58     61     1
     58     79     1
     57     60     1
     57     61     1
     57     79     1
     56     62     1
     56     63     1
     55     60     1
     53     57     1
     53     58     1
    127    129     1
    127    130     1
    127    131     1
    126    129     1
    126    130     1
    126    131     1
    124    126     1
    124    127     1
    124    128     1
    123    126     1
    123    127     1
    123    128     1
    122    129     1
    122    130     1
    122    131     1
    121    123     1
    121    124     1
    121    125     1
    120    123     1
    120    124     1
    120    125     1
    119    126     1
    119    127     1
    118    120     1
    118    121     1
    118    122     1
    117    120     1
    117    121     1
    117    122     1
    116    123     1
    116    124     1
    115    117     1
    115    118     1
    115    119     1
    114    117     1
    114    118     1
    114    119     1
    113    120     1
    113    121     1
    112    114     1
    112    115     1
    112    116     1
    111    114     1
    111    115     1
    111    116     1
    110    117     1
    110    118     1
    109    111     1
    109    112     1
    109    113     1
    108    111     1
    108    112     1
    108    113     1
    107    114     1
    107    115     1
    106    108     1
    106    109     1
    106    110     1
    105    111     1
    105    112     1
    104    106     1
    104    107     1
    103    108     1
    103    109     1
    102    104     1
    102    105     1
    101    104     1
    101    105     1
    100    106     1
     99    101     1
     99    102     1
     99    103     1
     98    101     1
     98    102     1
     98    103     1
     97    104     1
     96     98     1
     96     99     1
     96    100     1
     95     98     1
     95     99     1
     95    100     1
     94    101     1
     94    102     1
     93     95     1
     93     96     1
     93     97     1
     92     95     1
     92     96     1
     92     97     1
     91     98     1
     91     99     1
     90     92     1
     90     93     1
     90     94     1
     89     92     1
     89     93     1
     89     94     1
     88     95     1
     88     96     1
     87     89     1
     87     90     1
     87     91     1
     86     89     1
     86     90     1
     86     91     1
     85     92     1
     85     93     1
     84     86     1
     84     87     1
     84     88     1
     83     86     1
     83     87     1
     83     88     1
     82     89     1
     82     90     1


[ angles ]
;    ai     aj     ak funct         c0         c1         c2         c3
     50     53     54     1   123.1100526 569.275040
     50     53     55     1   111.9600481 579.567680
     47     50     53     1   110.5300474 533.794720
     44     47     50     1   112.0500483 394.969600
     41     44     47     1   112.0500483 394.969600
     38     41     44     1   112.0500483 394.969600
     35     38     41     1   112.0500483 394.969600
     32     35     38     1   112.0500483 394.969600
     29     32     35     1   112.0500483 394.969600
     26     29     32     1   112.0500483 394.969600
     23     26     29     1   112.0500483 394.969600
     20     23     26     1   112.0500483 394.969600
     17     20     23     1   112.0500483 394.969600
     14     17     20     1   112.0500483 394.969600
     11     14     17     1   112.0500483 394.969600
      8     11     14     1   112.0500483 394.969600
      5      8     11     1   112.0500483 394.969600
      1      5      8     1   112.0500483 394.969600
     81     80     82     1   123.1100526 569.275040
     80     82     85     1   110.5300474 533.794720
     79     80     81     1   123.3300529 635.382240
     79     80     82     1   111.9600481 579.567680
     77     65     78     1   119.9000514 1171.520000
     67     70     73     1   114.3200492 539.317600
     66     65     77     1   108.2300464 836.800000
     66     65     78     1   108.2300464 836.800000
     66     67     70     1   108.4200467 567.183040
     65     66     67     1   120.5000516 836.800000
     64     65     66     1   102.6000440 753.120000
     64     65     77     1   108.2300464 836.800000
     64     65     78     1   108.2300464 836.800000
     61     59     79     1   108.4200467 567.183040
     61     64     65     1   120.5000516 836.800000
     59     61     64     1   108.4200467 567.183040
     59     79     80     1   115.1400492 532.455840
     56     59     61     1   110.6300475 528.941280
     56     59     79     1   108.4200467 567.183040
     55     56     59     1   108.4200467 567.183040
     54     53     55     1   123.3300529 635.382240
     53     55     56     1   115.1400492 532.455840
    122    125    128     1   112.0500483 394.969600
    119    122    125     1   112.0500483 394.969600
    116    119    122     1   112.0500483 394.969600
    113    116    119     1   112.0500483 394.969600
    110    113    116     1   112.0500483 394.969600
    107    110    113     1   112.0500483 394.969600
    105    107    110     1   111.4400476 531.619040
    103    105    107     1   123.4200531 538.313440
    100    103    105     1   123.4200531 538.313440
     97    100    103     1   111.4400476 531.619040
     94     97    100     1   112.0500483 394.969600
     91     94     97     1   112.0500483 394.969600
     88     91     94     1   112.0500483 394.969600
     85     88     91     1   112.0500483 394.969600
     82     85     88     1   112.0500483 394.969600
     52     50     53     1   109.6800468 394.969600
     51     50     52     1   108.3500467 329.950240
     51     50     53     1   109.6800468 394.969600
     49     47     50     1   110.0500475 388.024160
     48     47     50     1   110.0500475 388.024160
     48     47     49     1   108.3500467 329.950240
     47     50     51     1   110.0500475 388.024160
     47     50     52     1   110.0500475 388.024160
     46     44     47     1   110.0500475 388.024160
     45     44     47     1   110.0500475 388.024160
     45     44     46     1   108.3500467 329.950240
     44     47     49     1   110.0500475 388.024160
     44     47     48     1   110.0500475 388.024160
     43     41     44     1   110.0500475 388.024160
     42     41     44     1   110.0500475 388.024160
     42     41     43     1   108.3500467 329.950240
     41     44     45     1   110.0500475 388.024160
     41     44     46     1   110.0500475 388.024160
     40     38     41     1   110.0500475 388.024160
     39     38     41     1   110.0500475 388.024160
     39     38     40     1   108.3500467 329.950240
     38     41     43     1   110.0500475 388.024160
     38     41     42     1   110.0500475 388.024160
     37     35     38     1   110.0500475 388.024160
     36     35     38     1   110.0500475 388.024160
     36     35     37     1   108.3500467 329.950240
     35     38     39     1   110.0500475 388.024160
     35     38     40     1   110.0500475 388.024160
     34     32     35     1   110.0500475 388.024160
     33     32     35     1   110.0500475 388.024160
     33     32     34     1   108.3500467 329.950240
     32     35     37     1   110.0500475 388.024160
     32     35     36     1   110.0500475 388.024160
     31     29     32     1   110.0500475 388.024160
     30     29     32     1   110.0500475 388.024160
     30     29     31     1   108.3500467 329.950240
     29     32     33     1   110.0500475 388.024160
     29     32     34     1   110.0500475 388.024160
     28     26     29     1   110.0500475 388.024160
     27     26     29     1   110.0500475 388.024160
     27     26     28     1   108.3500467 329.950240
     26     29     31     1   110.0500475 388.024160
     26     29     30     1   110.0500475 388.024160
     25     23     26     1   110.0500475 388.024160
     24     23     26     1   110.0500475 388.024160
     24     23     25     1   108.3500467 329.950240
     23     26     27     1   110.0500475 388.024160
     23     26     28     1   110.0500475 388.024160
     22     20     23     1   110.0500475 388.024160
     21     20     23     1   110.0500475 388.024160
     21     20     22     1   108.3500467 329.950240
     20     23     25     1   110.0500475 388.024160
     20     23     24     1   110.0500475 388.024160
     19     17     20     1   110.0500475 388.024160
     18     17     20     1   110.0500475 388.024160
     18     17     19     1   108.3500467 329.950240
     17     20     21     1   110.0500475 388.024160
     17     20     22     1   110.0500475 388.024160
     16     14     17     1   110.0500475 388.024160
     15     14     17     1   110.0500475 388.024160
     15     14     16     1   108.3500467 329.950240
     14     17     19     1   110.0500475 388.024160
     14     17     18     1   110.0500475 388.024160
     13     11     14     1   110.0500475 388.024160
     12     11     14     1   110.0500475 388.024160
     12     11     13     1   108.3500467 329.950240
     11     14     15     1   110.0500475 388.024160
     11     14     16     1   110.0500475 388.024160
     10      8     11     1   110.0500475 388.024160
      9      8     11     1   110.0500475 388.024160
      9      8     10     1   108.3500467 329.950240
      8     11     13     1   110.0500475 388.024160
      8     11     12     1   110.0500475 388.024160
      7      5      8     1   110.0500475 388.024160
      6      5      8     1   110.0500475 388.024160
      6      5      7     1   108.3500467 329.950240
      5      8      9     1   110.0500475 388.024160
      5      8     10     1   110.0500475 388.024160
      4      1      5     1   110.0500475 388.024160
      3      1      5     1   110.0500475 388.024160
      3      1      4     1   108.3500467 329.950240
      2      1      5     1   110.0500475 388.024160
      2      1      4     1   108.3500467 329.950240
      2      1      3     1   108.3500467 329.950240
      1      5      7     1   110.0500475 388.024160
      1      5      6     1   110.0500475 388.024160
     80     82     83     1   109.6800468 394.969600
     80     82     84     1   109.6800468 394.969600
     75     73     76     1   108.1100462 339.071360
     74     73     75     1   108.1100462 339.071360
     74     73     76     1   108.1100462 339.071360
     72     70     73     1   107.9100461 410.199360
     71     70     72     1   110.7400473 326.686720
     71     70     73     1   107.9100461 410.199360
     70     73     74     1   110.1100470 386.517920
     70     73     75     1   110.1100470 386.517920
     70     73     76     1   110.1100470 386.517920
     69     67     70     1   110.0700471 387.940480
     68     67     69     1   109.5500472 327.858240
     68     67     70     1   110.0700471 387.940480
     67     70     71     1   111.7400478 385.095360
     67     70     72     1   111.7400478 385.095360
     66     67     68     1   108.8200469 425.429120
     66     67     69     1   108.8200469 425.429120
     63     61     64     1   108.8200469 425.429120
     62     61     63     1   109.5500472 327.858240
     62     61     64     1   108.8200469 425.429120
     60     59     61     1   110.0700471 387.940480
     60     59     79     1   108.8200469 425.429120
     59     61     62     1   110.0700471 387.940480
     59     61     63     1   110.0700471 387.940480
     58     56     59     1   110.0700471 387.940480
     57     56     58     1   109.5500472 327.858240
     57     56     59     1   110.0700471 387.940480
     56     59     60     1   110.0700471 387.940480
     55     56     57     1   108.8200469 425.429120
     55     56     58     1   108.8200469 425.429120
    130    128    131     1   108.3500467 329.950240
    129    128    130     1   108.3500467 329.950240
    129    128    131     1   108.3500467 329.950240
    127    125    128     1   110.0500475 388.024160
    126    125    127     1   108.3500467 329.950240
    126    125    128     1   110.0500475 388.024160
    125    128    129     1   110.0500475 388.024160
    125    128    130     1   110.0500475 388.024160
    125    128    131     1   110.0500475 388.024160
    124    122    125     1   110.0500475 388.024160
    123    122    124     1   108.3500467 329.950240
    123    122    125     1   110.0500475 388.024160
    122    125    126     1   110.0500475 388.024160
    122    125    127     1   110.0500475 388.024160
    121    119    122     1   110.0500475 388.024160
    120    119    121     1   108.3500467 329.950240
    120    119    122     1   110.0500475 388.024160
    119    122    123     1   110.0500475 388.024160
    119    122    124     1   110.0500475 388.024160
    118    116    119     1   110.0500475 388.024160
    117    116    118     1   108.3500467 329.950240
    117    116    119     1   110.0500475 388.024160
    116    119    120     1   110.0500475 388.024160
    116    119    121     1   110.0500475 388.024160
    115    113    116     1   110.0500475 388.024160
    114    113    115     1   108.3500467 329.950240
    114    113    116     1   110.0500475 388.024160
    113    116    117     1   110.0500475 388.024160
    113    116    118     1   110.0500475 388.024160
    112    110    113     1   110.0500475 388.024160
    111    110    112     1   108.3500467 329.950240
    111    110    113     1   110.0500475 388.024160
    110    113    114     1   110.0500475 388.024160
    110    113    115     1   110.0500475 388.024160
    109    107    110     1   110.0500475 388.024160
    108    107    109     1   108.3500467 329.950240
    108    107    110     1   110.0500475 388.024160
    107    110    111     1   110.0500475 388.024160
    107    110    112     1   110.0500475 388.024160
    106    105    107     1   117.3000503 382.082880
    105    107    108     1   110.4900475 393.547040
    105    107    109     1   110.4900475 393.547040
    104    103    105     1   120.9400517 418.734720
    103    105    106     1   120.9400517 418.734720
    102    100    103     1   110.4900475 393.547040
    101    100    102     1   108.3500467 329.950240
    101    100    103     1   110.4900475 393.547040
    100    103    104     1   117.3000503 382.082880
     99     97    100     1   110.0500475 388.024160
     98     97     99     1   108.3500467 329.950240
     98     97    100     1   110.0500475 388.024160
     97    100    101     1   110.0500475 388.024160
     97    100    102     1   110.0500475 388.024160
     96     94     97     1   110.0500475 388.024160
     95     94     96     1   108.3500467 329.950240
     95     94     97     1   110.0500475 388.024160
     94     97     98     1   110.0500475 388.024160
     94     97     99     1   110.0500475 388.024160
     93     91     94     1   110.0500475 388.024160
     92     91     93     1   108.3500467 329.950240
     92     91     94     1   110.0500475 388.024160
     91     94     95     1   110.0500475 388.024160
     91     94     96     1   110.0500475 388.024160
     90     88     91     1   110.0500475 388.024160
     89     88     90     1   108.3500467 329.950240
     89     88     91     1   110.0500475 388.024160
     88     91     92     1   110.0500475 388.024160
     88     91     93     1   110.0500475 388.024160
     87     85     88     1   110.0500475 388.024160
     86     85     87     1   108.3500467 329.950240
     86     85     88     1   110.0500475 388.024160
     85     88     89     1   110.0500475 388.024160
     85     88     90     1   110.0500475 388.024160
     84     82     85     1   110.0500475 388.024160
     83     82     84     1   108.3500467 329.950240
     83     82     85     1   110.0500475 388.024160
     82     85     86     1   110.0500475 388.024160
     82     85     87     1   110.0500475 388.024160


[ dihedrals ]
;    ai     aj     ak     al funct         c0         c1         c2         c3         c4         c5
     50     53     55     56     1  180.0000771  11.2968000  2
     47     50     53     54     1  180.0000771  0.0000000  2
     47     50     53     55     1  180.0000771  0.0000000  2
     44     47     50     53     1  0.0000000  0.6527040  3
     41     44     47     50     1  0.0000000  0.4184000  1
     41     44     47     50     1  0.0000000  0.4184000  2
     41     44     47     50     1  0.0000000  1.2552000  3
     41     44     47     50     1  0.0000000  0.4184000  4
     41     44     47     50     1  0.0000000  0.4184000  5
     38     41     44     47     1  0.0000000  0.4184000  1
     38     41     44     47     1  0.0000000  0.4184000  2
     38     41     44     47     1  0.0000000  1.2552000  3
     38     41     44     47     1  0.0000000  0.4184000  4
     38     41     44     47     1  0.0000000  0.4184000  5
     35     38     41     44     1  0.0000000  0.4184000  1
     35     38     41     44     1  0.0000000  0.4184000  2
     35     38     41     44     1  0.0000000  1.2552000  3
     35     38     41     44     1  0.0000000  0.4184000  4
     35     38     41     44     1  0.0000000  0.4184000  5
     32     35     38     41     1  0.0000000  0.4184000  1
     32     35     38     41     1  0.0000000  0.4184000  2
     32     35     38     41     1  0.0000000  1.2552000  3
     32     35     38     41     1  0.0000000  0.4184000  4
     32     35     38     41     1  0.0000000  0.4184000  5
     29     32     35     38     1  0.0000000  0.4184000  1
     29     32     35     38     1  0.0000000  0.4184000  2
     29     32     35     38     1  0.0000000  1.2552000  3
     29     32     35     38     1  0.0000000  0.4184000  4
     29     32     35     38     1  0.0000000  0.4184000  5
     26     29     32     35     1  0.0000000  0.4184000  1
     26     29     32     35     1  0.0000000  0.4184000  2
     26     29     32     35     1  0.0000000  1.2552000  3
     26     29     32     35     1  0.0000000  0.4184000  4
     26     29     32     35     1  0.0000000  0.4184000  5
     23     26     29     32     1  0.0000000  0.4184000  1
     23     26     29     32     1  0.0000000  0.4184000  2
     23     26     29     32     1  0.0000000  1.2552000  3
     23     26     29     32     1  0.0000000  0.4184000  4
     23     26     29     32     1  0.0000000  0.4184000  5
     20     23     26     29     1  0.0000000  0.4184000  1
     20     23     26     29     1  0.0000000  0.4184000  2
     20     23     26     29     1  0.0000000  1.2552000  3
     20     23     26     29     1  0.0000000  0.4184000  4
     20     23     26     29     1  0.0000000  0.4184000  5
     17     20     23     26     1  0.0000000  0.4184000  1
     17     20     23     26     1  0.0000000  0.4184000  2
     17     20     23     26     1  0.0000000  1.2552000  3
     17     20     23     26     1  0.0000000  0.4184000  4
     17     20     23     26     1  0.0000000  0.4184000  5
     14     17     20     23     1  0.0000000  0.4184000  1
     14     17     20     23     1  0.0000000  0.4184000  2
     14     17     20     23     1  0.0000000  1.2552000  3
     14     17     20     23     1  0.0000000  0.4184000  4
     14     17     20     23     1  0.0000000  0.4184000  5
     11     14     17     20     1  0.0000000  0.4184000  1
     11     14     17     20     1  0.0000000  0.4184000  2
     11     14     17     20     1  0.0000000  1.2552000  3
     11     14     17     20     1  0.0000000  0.4184000  4
     11     14     17     20     1  0.0000000  0.4184000  5
      8     11     14     17     1  0.0000000  0.4184000  1
      8     11     14     17     1  0.0000000  0.4184000  2
      8     11     14     17     1  0.0000000  1.2552000  3
      8     11     14     17     1  0.0000000  0.4184000  4
      8     11     14     17     1  0.0000000  0.4184000  5
      5      8     11     14     1  0.0000000  0.4184000  1
      5      8     11     14     1  0.0000000  0.4184000  2
      5      8     11     14     1  0.0000000  1.2552000  3
      5      8     11     14     1  0.0000000  0.4184000  4
      5      8     11     14     1  0.0000000  0.4184000  5
      1      5      8     11     1  0.0000000  0.4184000  1
      1      5      8     11     1  0.0000000  0.4184000  2
      1      5      8     11     1  0.0000000  1.2552000  3
      1      5      8     11     1  0.0000000  0.4184000  4
      1      5      8     11     1  0.0000000  0.4184000  5
     81     80     82     85     1  180.0000771  0.0000000  2
     80     82     85     88     1  0.0000000  0.6527040  3
     79     80     82     85     1  180.0000771  0.0000000  2
     67     66     65     77     1  0.0000000  0.0000000  1
     67     66     65     77     1  0.0000000  0.8368000  2
     67     66     65     77     1  0.0000000  0.0000000  3
     67     66     65     77     1  0.0000000  0.0000000  4
     67     66     65     77     1  0.0000000  0.0000000  5
     67     66     65     78     1  0.0000000  0.0000000  1
     67     66     65     78     1  0.0000000  0.8368000  2
     67     66     65     78     1  0.0000000  0.0000000  3
     67     66     65     78     1  0.0000000  0.0000000  4
     67     66     65     78     1  0.0000000  0.0000000  5
     66     67     70     73     1  0.0000000  4.1840000  3
     65     66     67     70     1  180.0000771  -3.3472000  2
     65     66     67     70     1  0.0000000  0.0000000  3
     64     61     59     79     1  0.0000000  0.0000000  1
     64     61     59     79     1  0.0000000  0.0000000  2
     64     61     59     79     1  0.0000000  0.0000000  3
     64     61     59     79     1  0.0000000  0.0000000  4
     64     61     59     79     1  0.0000000  0.0000000  5
     64     65     66     67     1  0.0000000  9.6232000  2
     64     65     66     67     1  0.0000000  2.5104000  3
     61     59     79     80     1  0.0000000  -0.4184000  1
     61     59     79     80     1  240.0001029  -1.2552000  2
     61     59     79     80     1  300.0001286  -0.8368000  3
     61     64     65     66     1  0.0000000  9.6232000  2
     61     64     65     66     1  0.0000000  2.5104000  3
     61     64     65     77     1  0.0000000  0.0000000  1
     61     64     65     77     1  0.0000000  0.8368000  2
     61     64     65     77     1  0.0000000  0.0000000  3
     61     64     65     77     1  0.0000000  0.0000000  4
     61     64     65     77     1  0.0000000  0.0000000  5
     61     64     65     78     1  0.0000000  0.0000000  1
     61     64     65     78     1  0.0000000  0.8368000  2
     61     64     65     78     1  0.0000000  0.0000000  3
     61     64     65     78     1  0.0000000  0.0000000  4
     61     64     65     78     1  0.0000000  0.0000000  5
     59     61     64     65     1  180.0000771  -3.3472000  2
     59     61     64     65     1  0.0000000  0.0000000  3
     59     79     80     81     1  180.0000771  5.8576000  1
     59     79     80     81     1  180.0000771  11.2968000  2
     59     79     80     82     1  180.0000771  11.2968000  2
     56     59     61     64     1  180.0000771  3.3472000  1
     56     59     61     64     1  120.0000514  0.8368000  2
     56     59     61     64     1  60.0000257  1.6736000  3
     56     59     79     80     1  0.0000000  -0.4184000  1
     56     59     79     80     1  240.0001029  -1.2552000  2
     56     59     79     80     1  300.0001286  -0.8368000  3
     55     56     59     61     1  0.0000000  0.0000000  1
     55     56     59     61     1  0.0000000  0.0000000  2
     55     56     59     61     1  0.0000000  0.0000000  3
     55     56     59     61     1  0.0000000  0.0000000  4
     55     56     59     61     1  0.0000000  0.0000000  5
     55     56     59     79     1  180.0000771  -0.4184000  1
     55     56     59     79     1  0.0000000  1.2552000  2
     55     56     59     79     1  0.0000000  4.1840000  3
     54     53     55     56     1  180.0000771  5.8576000  1
     54     53     55     56     1  180.0000771  11.2968000  2
     53     55     56     59     1  0.0000000  -0.4184000  1
     53     55     56     59     1  240.0001029  -1.2552000  2
     53     55     56     59     1  300.0001286  -0.8368000  3
    119    122    125    128     1  0.0000000  0.4184000  1
    119    122    125    128     1  0.0000000  0.4184000  2
    119    122    125    128     1  0.0000000  1.2552000  3
    119    122    125    128     1  0.0000000  0.4184000  4
    119    122    125    128     1  0.0000000  0.4184000  5
    116    119    122    125     1  0.0000000  0.4184000  1
    116    119    122    125     1  0.0000000  0.4184000  2
    116    119    122    125     1  0.0000000  1.2552000  3
    116    119    122    125     1  0.0000000  0.4184000  4
    116    119    122    125     1  0.0000000  0.4184000  5
    113    116    119    122     1  0.0000000  0.4184000  1
    113    116    119    122     1  0.0000000  0.4184000  2
    113    116    119    122     1  0.0000000  1.2552000  3
    113    116    119    122     1  0.0000000  0.4184000  4
    113    116    119    122     1  0.0000000  0.4184000  5
    110    113    116    119     1  0.0000000  0.4184000  1
    110    113    116    119     1  0.0000000  0.4184000  2
    110    113    116    119     1  0.0000000  1.2552000  3
    110    113    116    119     1  0.0000000  0.4184000  4
    110    113    116    119     1  0.0000000  0.4184000  5
    107    110    113    116     1  0.0000000  0.4184000  1
    107    110    113    116     1  0.0000000  0.4184000  2
    107    110    113    116     1  0.0000000  1.2552000  3
    107    110    113    116     1  0.0000000  0.4184000  4
    107    110    113    116     1  0.0000000  0.4184000  5
    105    107    110    113     1  0.0000000  0.0000000  1
    105    107    110    113     1  0.0000000  0.0000000  2
    105    107    110    113     1  0.0000000  2.0920000  3
    105    107    110    113     1  0.0000000  0.0000000  4
    105    107    110    113     1  0.0000000  0.4184000  5
    103    105    107    110     1  0.0000000  2.5104000  1
    103    105    107    110     1  180.0000771  1.6736000  2
    103    105    107    110     1  180.0000771  1.6736000  3
    103    105    107    110     1  180.0000771  0.8368000  4
    103    105    107    110     1  180.0000771  0.8368000  5
    100    103    105    107     1  180.0000771  7.1128000  1
    100    103    105    107     1  180.0000771  13.8072000  2
    100    103    105    107     1  0.0000000  2.5104000  3
    100    103    105    107     1  0.0000000  0.0000000  4
    100    103    105    107     1  0.0000000  0.0000000  5
     97    100    103    105     1  0.0000000  2.5104000  1
     97    100    103    105     1  180.0000771  1.6736000  2
     97    100    103    105     1  180.0000771  1.6736000  3
     97    100    103    105     1  180.0000771  0.8368000  4
     97    100    103    105     1  180.0000771  0.8368000  5
     94     97    100    103     1  0.0000000  0.0000000  1
     94     97    100    103     1  0.0000000  0.0000000  2
     94     97    100    103     1  0.0000000  2.0920000  3
     94     97    100    103     1  0.0000000  0.0000000  4
     94     97    100    103     1  0.0000000  0.4184000  5
     91     94     97    100     1  0.0000000  0.4184000  1
     91     94     97    100     1  0.0000000  0.4184000  2
     91     94     97    100     1  0.0000000  1.2552000  3
     91     94     97    100     1  0.0000000  0.4184000  4
     91     94     97    100     1  0.0000000  0.4184000  5
     88     91     94     97     1  0.0000000  0.4184000  1
     88     91     94     97     1  0.0000000  0.4184000  2
     88     91     94     97     1  0.0000000  1.2552000  3
     88     91     94     97     1  0.0000000  0.4184000  4
     88     91     94     97     1  0.0000000  0.4184000  5
     85     88     91     94     1  0.0000000  0.4184000  1
     85     88     91     94     1  0.0000000  0.4184000  2
     85     88     91     94     1  0.0000000  1.2552000  3
     85     88     91     94     1  0.0000000  0.4184000  4
     85     88     91     94     1  0.0000000  0.4184000  5
     82     85     88     91     1  0.0000000  0.4184000  1
     82     85     88     91     1  0.0000000  0.4184000  2
     82     85     88     91     1  0.0000000  1.2552000  3
     82     85     88     91     1  0.0000000  0.4184000  4
     82     85     88     91     1  0.0000000  0.4184000  5
     82     81     80     79     4  180.0000771  43.9320000  2
     50     54     53     55     4  180.0000771  43.9320000  2
     52     50     53     54     1  0.0000000  3.3472000  1
     52     50     53     54     1  180.0000771  0.3347200  3
     52     50     53     55     1  180.0000771  0.0000000  2
     51     50     53     54     1  0.0000000  3.3472000  1
     51     50     53     54     1  180.0000771  0.3347200  3
     51     50     53     55     1  180.0000771  0.0000000  2
     49     47     50     51     1  0.0000000  0.6276000  3
     49     47     50     52     1  0.0000000  0.6276000  3
     49     47     50     53     1  0.0000000  0.6527040  3
     48     47     50     51     1  0.0000000  0.6276000  3
     48     47     50     52     1  0.0000000  0.6276000  3
     48     47     50     53     1  0.0000000  0.6527040  3
     46     44     47     50     1  0.0000000  0.6694400  3
     46     44     47     49     1  0.0000000  0.6276000  3
     46     44     47     48     1  0.0000000  0.6276000  3
     45     44     47     50     1  0.0000000  0.6694400  3
     45     44     47     49     1  0.0000000  0.6276000  3
     45     44     47     48     1  0.0000000  0.6276000  3
     44     47     50     51     1  0.0000000  0.6694400  3
     44     47     50     52     1  0.0000000  0.6694400  3
     43     41     44     47     1  0.0000000  0.6694400  3
     43     41     44     45     1  0.0000000  0.6276000  3
     43     41     44     46     1  0.0000000  0.6276000  3
     42     41     44     47     1  0.0000000  0.6694400  3
     42     41     44     45     1  0.0000000  0.6276000  3
     42     41     44     46     1  0.0000000  0.6276000  3
     41     44     47     49     1  0.0000000  0.6694400  3
     41     44     47     48     1  0.0000000  0.6694400  3
     40     38     41     44     1  0.0000000  0.6694400  3
     40     38     41     43     1  0.0000000  0.6276000  3
     40     38     41     42     1  0.0000000  0.6276000  3
     39     38     41     44     1  0.0000000  0.6694400  3
     39     38     41     43     1  0.0000000  0.6276000  3
     39     38     41     42     1  0.0000000  0.6276000  3
     38     41     44     45     1  0.0000000  0.6694400  3
     38     41     44     46     1  0.0000000  0.6694400  3
     37     35     38     41     1  0.0000000  0.6694400  3
     37     35     38     39     1  0.0000000  0.6276000  3
     37     35     38     40     1  0.0000000  0.6276000  3
     36     35     38     41     1  0.0000000  0.6694400  3
     36     35     38     39     1  0.0000000  0.6276000  3
     36     35     38     40     1  0.0000000  0.6276000  3
     35     38     41     43     1  0.0000000  0.6694400  3
     35     38     41     42     1  0.0000000  0.6694400  3
     34     32     35     38     1  0.0000000  0.6694400  3
     34     32     35     37     1  0.0000000  0.6276000  3
     34     32     35     36     1  0.0000000  0.6276000  3
     33     32     35     38     1  0.0000000  0.6694400  3
     33     32     35     37     1  0.0000000  0.6276000  3
     33     32     35     36     1  0.0000000  0.6276000  3
     32     35     38     39     1  0.0000000  0.6694400  3
     32     35     38     40     1  0.0000000  0.6694400  3
     31     29     32     35     1  0.0000000  0.6694400  3
     31     29     32     33     1  0.0000000  0.6276000  3
     31     29     32     34     1  0.0000000  0.6276000  3
     30     29     32     35     1  0.0000000  0.6694400  3
     30     29     32     33     1  0.0000000  0.6276000  3
     30     29     32     34     1  0.0000000  0.6276000  3
     29     32     35     37     1  0.0000000  0.6694400  3
     29     32     35     36     1  0.0000000  0.6694400  3
     28     26     29     32     1  0.0000000  0.6694400  3
     28     26     29     31     1  0.0000000  0.6276000  3
     28     26     29     30     1  0.0000000  0.6276000  3
     27     26     29     32     1  0.0000000  0.6694400  3
     27     26     29     31     1  0.0000000  0.6276000  3
     27     26     29     30     1  0.0000000  0.6276000  3
     26     29     32     33     1  0.0000000  0.6694400  3
     26     29     32     34     1  0.0000000  0.6694400  3
     25     23     26     29     1  0.0000000  0.6694400  3
     25     23     26     27     1  0.0000000  0.6276000  3
     25     23     26     28     1  0.0000000  0.6276000  3
     24     23     26     29     1  0.0000000  0.6694400  3
     24     23     26     27     1  0.0000000  0.6276000  3
     24     23     26     28     1  0.0000000  0.6276000  3
     23     26     29     31     1  0.0000000  0.6694400  3
     23     26     29     30     1  0.0000000  0.6694400  3
     22     20     23     26     1  0.0000000  0.6694400  3
     22     20     23     25     1  0.0000000  0.6276000  3
     22     20     23     24     1  0.0000000  0.6276000  3
     21     20     23     26     1  0.0000000  0.6694400  3
     21     20     23     25     1  0.0000000  0.6276000  3
     21     20     23     24     1  0.0000000  0.6276000  3
     20     23     26     27     1  0.0000000  0.6694400  3
     20     23     26     28     1  0.0000000  0.6694400  3
     19     17     20     23     1  0.0000000  0.6694400  3
     19     17     20     21     1  0.0000000  0.6276000  3
     19     17     20     22     1  0.0000000  0.6276000  3
     18     17     20     23     1  0.0000000  0.6694400  3
     18     17     20     21     1  0.0000000  0.6276000  3
     18     17     20     22     1  0.0000000  0.6276000  3
     17     20     23     25     1  0.0000000  0.6694400  3
     17     20     23     24     1  0.0000000  0.6694400  3
     16     14     17     20     1  0.0000000  0.6694400  3
     16     14     17     19     1  0.0000000  0.6276000  3
     16     14     17     18     1  0.0000000  0.6276000  3
     15     14     17     20     1  0.0000000  0.6694400  3
     15     14     17     19     1  0.0000000  0.6276000  3
     15     14     17     18     1  0.0000000  0.6276000  3
     14     17     20     21     1  0.0000000  0.6694400  3
     14     17     20     22     1  0.0000000  0.6694400  3
     13     11     14     17     1  0.0000000  0.6694400  3
     13     11     14     15     1  0.0000000  0.6276000  3
     13     11     14     16     1  0.0000000  0.6276000  3
     12     11     14     17     1  0.0000000  0.6694400  3
     12     11     14     15     1  0.0000000  0.6276000  3
     12     11     14     16     1  0.0000000  0.6276000  3
     11     14     17     19     1  0.0000000  0.6694400  3
     11     14     17     18     1  0.0000000  0.6694400  3
     10      8     11     14     1  0.0000000  0.6694400  3
     10      8     11     13     1  0.0000000  0.6276000  3
     10      8     11     12     1  0.0000000  0.6276000  3
      9      8     11     14     1  0.0000000  0.6694400  3
      9      8     11     13     1  0.0000000  0.6276000  3
      9      8     11     12     1  0.0000000  0.6276000  3
      8     11     14     15     1  0.0000000  0.6694400  3
      8     11     14     16     1  0.0000000  0.6694400  3
      7      5      8     11     1  0.0000000  0.6694400  3
      7      5      8      9     1  0.0000000  0.6276000  3
      7      5      8     10     1  0.0000000  0.6276000  3
      6      5      8     11     1  0.0000000  0.6694400  3
      6      5      8      9     1  0.0000000  0.6276000  3
      6      5      8     10     1  0.0000000  0.6276000  3
      5      8     11     13     1  0.0000000  0.6694400  3
      5      8     11     12     1  0.0000000  0.6694400  3
      4      1      5      8     1  0.0000000  0.6694400  3
      4      1      5      7     1  0.0000000  0.6276000  3
      4      1      5      6     1  0.0000000  0.6276000  3
      3      1      5      8     1  0.0000000  0.6694400  3
      3      1      5      7     1  0.0000000  0.6276000  3
      3      1      5      6     1  0.0000000  0.6276000  3
      2      1      5      8     1  0.0000000  0.6694400  3
      2      1      5      7     1  0.0000000  0.6276000  3
      2      1      5      6     1  0.0000000  0.6276000  3
      1      5      8      9     1  0.0000000  0.6694400  3
      1      5      8     10     1  0.0000000  0.6694400  3
     81     80     82     83     1  0.0000000  3.3472000  1
     81     80     82     83     1  180.0000771  0.3347200  3
     81     80     82     84     1  0.0000000  3.3472000  1
     81     80     82     84     1  180.0000771  0.3347200  3
     80     82     85     86     1  0.0000000  0.6527040  3
     80     82     85     87     1  0.0000000  0.6527040  3
     79     80     82     83     1  180.0000771  0.0000000  2
     79     80     82     84     1  180.0000771  0.0000000  2
     72     70     73     74     1  0.0000000  0.6510304  3
     72     70     73     75     1  0.0000000  0.6510304  3
     72     70     73     76     1  0.0000000  0.6510304  3
     71     70     73     74     1  0.0000000  0.6510304  3
     71     70     73     75     1  0.0000000  0.6510304  3
     71     70     73     76     1  0.0000000  0.6510304  3
     69     67     70     71     1  0.0000000  0.6527040  3
     69     67     70     72     1  0.0000000  0.6527040  3
     69     67     70     73     1  0.0000000  0.6527040  3
     68     67     70     71     1  0.0000000  0.6527040  3
     68     67     70     72     1  0.0000000  0.6527040  3
     68     67     70     73     1  0.0000000  0.6527040  3
     67     70     73     74     1  0.0000000  0.6510304  3
     67     70     73     75     1  0.0000000  0.6510304  3
     67     70     73     76     1  0.0000000  0.6510304  3
     66     67     70     71     1  0.0000000  0.6527040  3
     66     67     70     72     1  0.0000000  0.6527040  3
     65     66     67     68     1  0.0000000  0.0000000  1
     65     66     67     68     1  0.0000000  0.0000000  2
     65     66     67     68     1  0.0000000  1.6024720  3
     65     66     67     68     1  0.0000000  0.0000000  4
     65     66     67     68     1  0.0000000  0.0000000  5
     65     66     67     69     1  0.0000000  0.0000000  1
     65     66     67     69     1  0.0000000  0.0000000  2
     65     66     67     69     1  0.0000000  1.6024720  3
     65     66     67     69     1  0.0000000  0.0000000  4
     65     66     67     69     1  0.0000000  0.0000000  5
     63     61     59     79     1  0.0000000  1.0460000  1
     63     61     59     79     1  0.0000000  0.0000000  3
     63     61     64     65     1  0.0000000  0.0000000  1
     63     61     64     65     1  0.0000000  0.0000000  2
     63     61     64     65     1  0.0000000  1.6024720  3
     63     61     64     65     1  0.0000000  0.0000000  4
     63     61     64     65     1  0.0000000  0.0000000  5
     62     61     59     79     1  0.0000000  1.0460000  1
     62     61     59     79     1  0.0000000  0.0000000  3
     62     61     64     65     1  0.0000000  0.0000000  1
     62     61     64     65     1  0.0000000  0.0000000  2
     62     61     64     65     1  0.0000000  1.6024720  3
     62     61     64     65     1  0.0000000  0.0000000  4
     62     61     64     65     1  0.0000000  0.0000000  5
     60     59     61     62     1  0.0000000  0.6527040  3
     60     59     61     63     1  0.0000000  0.6527040  3
     60     59     61     64     1  0.0000000  1.0460000  1
     60     59     61     64     1  0.0000000  0.0000000  3
     60     59     79     80     1  0.0000000  1.6024720  3
     58     56     59     60     1  0.0000000  0.6527040  3
     58     56     59     61     1  0.0000000  0.6527040  3
     58     56     59     79     1  0.0000000  1.0460000  1
     58     56     59     79     1  0.0000000  0.0000000  3
     57     56     59     60     1  0.0000000  0.6527040  3
     57     56     59     61     1  0.0000000  0.6527040  3
     57     56     59     79     1  0.0000000  1.0460000  1
     57     56     59     79     1  0.0000000  0.0000000  3
     56     59     61     62     1  0.0000000  0.6527040  3
     56     59     61     63     1  0.0000000  0.6527040  3
     55     56     59     60     1  0.0000000  1.0460000  1
     55     56     59     60     1  0.0000000  0.0000000  3
     53     55     56     57     1  0.0000000  1.6024720  3
     53     55     56     58     1  0.0000000  1.6024720  3
    127    125    128    129     1  0.0000000  0.6276000  3
    127    125    128    130     1  0.0000000  0.6276000  3
    127    125    128    131     1  0.0000000  0.6276000  3
    126    125    128    129     1  0.0000000  0.6276000  3
    126    125    128    130     1  0.0000000  0.6276000  3
    126    125    128    131     1  0.0000000  0.6276000  3
    124    122    125    126     1  0.0000000  0.6276000  3
    124    122    125    127     1  0.0000000  0.6276000  3
    124    122    125    128     1  0.0000000  0.6694400  3
    123    122    125    126     1  0.0000000  0.6276000  3
    123    122    125    127     1  0.0000000  0.6276000  3
    123    122    125    128     1  0.0000000  0.6694400  3
    122    125    128    129     1  0.0000000  0.6694400  3
    122    125    128    130     1  0.0000000  0.6694400  3
    122    125    128    131     1  0.0000000  0.6694400  3
    121    119    122    123     1  0.0000000  0.6276000  3
    121    119    122    124     1  0.0000000  0.6276000  3
    121    119    122    125     1  0.0000000  0.6694400  3
    120    119    122    123     1  0.0000000  0.6276000  3
    120    119    122    124     1  0.0000000  0.6276000  3
    120    119    122    125     1  0.0000000  0.6694400  3
    119    122    125    126     1  0.0000000  0.6694400  3
    119    122    125    127     1  0.0000000  0.6694400  3
    118    116    119    120     1  0.0000000  0.6276000  3
    118    116    119    121     1  0.0000000  0.6276000  3
    118    116    119    122     1  0.0000000  0.6694400  3
    117    116    119    120     1  0.0000000  0.6276000  3
    117    116    119    121     1  0.0000000  0.6276000  3
    117    116    119    122     1  0.0000000  0.6694400  3
    116    119    122    123     1  0.0000000  0.6694400  3
    116    119    122    124     1  0.0000000  0.6694400  3
    115    113    116    117     1  0.0000000  0.6276000  3
    115    113    116    118     1  0.0000000  0.6276000  3
    115    113    116    119     1  0.0000000  0.6694400  3
    114    113    116    117     1  0.0000000  0.6276000  3
    114    113    116    118     1  0.0000000  0.6276000  3
    114    113    116    119     1  0.0000000  0.6694400  3
    113    116    119    120     1  0.0000000  0.6694400  3
    113    116    119    121     1  0.0000000  0.6694400  3
    112    110    113    114     1  0.0000000  0.6276000  3
    112    110    113    115     1  0.0000000  0.6276000  3
    112    110    113    116     1  0.0000000  0.6694400  3
    111    110    113    114     1  0.0000000  0.6276000  3
    111    110    113    115     1  0.0000000  0.6276000  3
    111    110    113    116     1  0.0000000  0.6694400  3
    110    113    116    117     1  0.0000000  0.6694400  3
    110    113    116    118     1  0.0000000  0.6694400  3
    109    107    110    111     1  0.0000000  0.6276000  3
    109    107    110    112     1  0.0000000  0.6276000  3
    109    107    110    113     1  0.0000000  0.6694400  3
    108    107    110    111     1  0.0000000  0.6276000  3
    108    107    110    112     1  0.0000000  0.6276000  3
    108    107    110    113     1  0.0000000  0.6694400  3
    107    110    113    114     1  0.0000000  0.6694400  3
    107    110    113    115     1  0.0000000  0.6694400  3
    106    105    107    108     1  0.0000000  0.0000000  2
    106    105    107    109     1  0.0000000  0.0000000  2
    106    105    107    110     1  0.0000000  0.0000000  2
    105    107    110    111     1  0.0000000  0.6510304  3
    105    107    110    112     1  0.0000000  0.6510304  3
    104    103    105    106     1  180.0000771  27.8236000  2
    104    103    105    107     1  180.0000771  27.8236000  2
    103    105    107    108     1  0.0000000  4.8116000  1
    103    105    107    108     1  180.0000771  1.5899200  3
    103    105    107    109     1  0.0000000  4.8116000  1
    103    105    107    109     1  180.0000771  1.5899200  3
    102    100    103    104     1  0.0000000  0.0000000  2
    102    100    103    105     1  0.0000000  4.8116000  1
    102    100    103    105     1  180.0000771  1.5899200  3
    101    100    103    104     1  0.0000000  0.0000000  2
    101    100    103    105     1  0.0000000  4.8116000  1
    101    100    103    105     1  180.0000771  1.5899200  3
    100    103    105    106     1  180.0000771  27.8236000  2
     99     97    100    101     1  0.0000000  0.6276000  3
     99     97    100    102     1  0.0000000  0.6276000  3
     99     97    100    103     1  0.0000000  0.6510304  3
     98     97    100    101     1  0.0000000  0.6276000  3
     98     97    100    102     1  0.0000000  0.6276000  3
     98     97    100    103     1  0.0000000  0.6510304  3
     97    100    103    104     1  0.0000000  0.0000000  2
     96     94     97     98     1  0.0000000  0.6276000  3
     96     94     97     99     1  0.0000000  0.6276000  3
     96     94     97    100     1  0.0000000  0.6694400  3
     95     94     97     98     1  0.0000000  0.6276000  3
     95     94     97     99     1  0.0000000  0.6276000  3
     95     94     97    100     1  0.0000000  0.6694400  3
     94     97    100    101     1  0.0000000  0.6694400  3
     94     97    100    102     1  0.0000000  0.6694400  3
     93     91     94     95     1  0.0000000  0.6276000  3
     93     91     94     96     1  0.0000000  0.6276000  3
     93     91     94     97     1  0.0000000  0.6694400  3
     92     91     94     95     1  0.0000000  0.6276000  3
     92     91     94     96     1  0.0000000  0.6276000  3
     92     91     94     97     1  0.0000000  0.6694400  3
     91     94     97     98     1  0.0000000  0.6694400  3
     91     94     97     99     1  0.0000000  0.6694400  3
     90     88     91     92     1  0.0000000  0.6276000  3
     90     88     91     93     1  0.0000000  0.6276000  3
     90     88     91     94     1  0.0000000  0.6694400  3
     89     88     91     92     1  0.0000000  0.6276000  3
     89     88     91     93     1  0.0000000  0.6276000  3
     89     88     91     94     1  0.0000000  0.6694400  3
     88     91     94     95     1  0.0000000  0.6694400  3
     88     91     94     96     1  0.0000000  0.6694400  3
     87     85     88     89     1  0.0000000  0.6276000  3
     87     85     88     90     1  0.0000000  0.6276000  3
     87     85     88     91     1  0.0000000  0.6694400  3
     86     85     88     89     1  0.0000000  0.6276000  3
     86     85     88     90     1  0.0000000  0.6276000  3
     86     85     88     91     1  0.0000000  0.6694400  3
     85     88     91     92     1  0.0000000  0.6694400  3
     85     88     91     93     1  0.0000000  0.6694400  3
     84     82     85     86     1  0.0000000  0.6276000  3
     84     82     85     87     1  0.0000000  0.6276000  3
     84     82     85     88     1  0.0000000  0.6694400  3
     83     82     85     86     1  0.0000000  0.6276000  3
     83     82     85     87     1  0.0000000  0.6276000  3
     83     82     85     88     1  0.0000000  0.6694400  3
     82     85     88     89     1  0.0000000  0.6694400  3
     82     85     88     90     1  0.0000000  0.6694400  3
    103    107    105    106     4  180.0000771  4.6024000  2
    105    100    103    104     4  180.0000771  4.6024000  2
