; Exact Amber Lipid21 v1.0 topology converted by ParmEd
; Explicit [pairs] preserve Lipid21-specific 1-4 scaling.
; Conversion contract: amber-explicit-pairs-v2 (independent of parent defaults).

[ moleculetype ]
; Name nrexcl
SOPG 3

[ atoms ]
; nr type resnr residue atom cgnr charge mass
1 L21_cD 1 SOPG C18X 1 -0.12006900 12.010000
2 L21_hL 1 SOPG H18X 2 0.02793800 1.008000
3 L21_hL 1 SOPG H18Y 3 0.02793800 1.008000
4 L21_hL 1 SOPG H18Z 4 0.02793800 1.008000
5 L21_cD 1 SOPG C17X 5 0.02066500 12.010000
6 L21_hL 1 SOPG H17X 6 0.00848300 1.008000
7 L21_hL 1 SOPG H17Y 7 0.00848300 1.008000
8 L21_cD 1 SOPG C16X 8 -0.02765400 12.010000
9 L21_hL 1 SOPG H16X 9 0.01562700 1.008000
10 L21_hL 1 SOPG H16Y 10 0.01562700 1.008000
11 L21_cD 1 SOPG C15X 11 -0.03244400 12.010000
12 L21_hL 1 SOPG H15X 12 0.01025300 1.008000
13 L21_hL 1 SOPG H15Y 13 0.01025300 1.008000
14 L21_cD 1 SOPG C14X 14 -0.01348900 12.010000
15 L21_hL 1 SOPG H14X 15 0.01007300 1.008000
16 L21_hL 1 SOPG H14Y 16 0.01007300 1.008000
17 L21_cD 1 SOPG C13X 17 -0.01159000 12.010000
18 L21_hL 1 SOPG H13X 18 0.00602200 1.008000
19 L21_hL 1 SOPG H13Y 19 0.00602200 1.008000
20 L21_cD 1 SOPG C12X 20 -0.01915300 12.010000
21 L21_hL 1 SOPG H12X 21 0.00819800 1.008000
22 L21_hL 1 SOPG H12Y 22 0.00819800 1.008000
23 L21_cD 1 SOPG C11X 23 -0.01709300 12.010000
24 L21_hL 1 SOPG H11X 24 0.01020600 1.008000
25 L21_hL 1 SOPG H11Y 25 0.01020600 1.008000
26 L21_cD 1 SOPG C10X 26 -0.02641800 12.010000
27 L21_hL 1 SOPG H10X 27 0.01082500 1.008000
28 L21_hL 1 SOPG H10Y 28 0.01082500 1.008000
29 L21_cD 1 SOPG C9X 29 -0.01799700 12.010000
30 L21_hL 1 SOPG H9X 30 0.00959500 1.008000
31 L21_hL 1 SOPG H9Y 31 0.00959500 1.008000
32 L21_cD 1 SOPG C8X 32 -0.01462300 12.010000
33 L21_hL 1 SOPG H8X 33 0.00732600 1.008000
34 L21_hL 1 SOPG H8Y 34 0.00732600 1.008000
35 L21_cD 1 SOPG C7X 35 -0.01946900 12.010000
36 L21_hL 1 SOPG H7X 36 0.00929200 1.008000
37 L21_hL 1 SOPG H7Y 37 0.00929200 1.008000
38 L21_cD 1 SOPG C6X 38 -0.03762700 12.010000
39 L21_hL 1 SOPG H6X 39 0.01774000 1.008000
40 L21_hL 1 SOPG H6Y 40 0.01774000 1.008000
41 L21_cD 1 SOPG C5X 41 -0.01344300 12.010000
42 L21_hL 1 SOPG H5X 42 0.00819100 1.008000
43 L21_hL 1 SOPG H5Y 43 0.00819100 1.008000
44 L21_cD 1 SOPG C4X 44 -0.05979200 12.010000
45 L21_hL 1 SOPG H4X 45 0.02424100 1.008000
46 L21_hL 1 SOPG H4Y 46 0.02424100 1.008000
47 L21_cD 1 SOPG C3X 47 -0.00012800 12.010000
48 L21_hL 1 SOPG H3X 48 0.01388600 1.008000
49 L21_hL 1 SOPG H3Y 49 0.01388600 1.008000
50 L21_cD 1 SOPG C2X 50 -0.11702000 12.010000
51 L21_hL 1 SOPG H2X 51 0.05180700 1.008000
52 L21_hL 1 SOPG H2Y 52 0.05180700 1.008000
53 L21_cC 1 SOPG C11 53 0.87700600 12.010000
54 L21_oC 1 SOPG O12 54 -0.64926500 16.000000
55 L21_oS 1 SOPG O11 55 -0.58516500 16.000000
56 L21_cA 1 SOPG C1 56 0.29511900 12.010000
57 L21_hE 1 SOPG HR 57 0.03379700 1.008000
58 L21_hE 1 SOPG HS 58 0.03379700 1.008000
59 L21_cA 1 SOPG C2 59 0.35380700 12.010000
60 L21_hE 1 SOPG HX 60 0.03748800 1.008000
61 L21_cA 1 SOPG C3 61 0.04371300 12.010000
62 L21_hE 1 SOPG HA 62 0.09104100 1.008000
63 L21_hE 1 SOPG HB 63 0.09104100 1.008000
64 L21_oT 1 SOPG O31 64 -0.54609800 16.000000
65 L21_pA 1 SOPG P31 65 1.38046400 30.970000
66 L21_oT 1 SOPG O32 66 -0.53430800 16.000000
67 L21_cA 1 SOPG C31 67 -0.05670600 12.010000
68 L21_hE 1 SOPG H1A 68 0.09335400 1.008000
69 L21_hE 1 SOPG H1B 69 0.09335400 1.008000
70 L21_cA 1 SOPG C32 70 0.33681600 12.010000
71 L21_hE 1 SOPG H2A 71 0.03004200 1.008000
72 L21_oH 1 SOPG O35 72 -0.72619200 16.000000
73 L21_hO 1 SOPG HO5A 73 0.43952300 1.008000
74 L21_cA 1 SOPG C33 74 0.19359700 12.010000
75 L21_hE 1 SOPG H3A 75 0.03471500 1.008000
76 L21_hE 1 SOPG H3B 76 0.03471500 1.008000
77 L21_oP 1 SOPG O33 77 -0.87344400 16.000000
78 L21_oP 1 SOPG O34 78 -0.87344400 16.000000
79 L21_oS 1 SOPG O21 79 -0.59913100 16.000000
80 L21_cC 1 SOPG C21 80 0.88366900 12.010000
81 L21_oC 1 SOPG O22 81 -0.65576200 16.000000
82 L21_oH 1 SOPG O36 82 -0.70087100 16.000000
83 L21_hO 1 SOPG HO6A 83 0.42332800 1.008000
84 L21_cD 1 SOPG C2Y 84 -0.14341800 12.010000
85 L21_hL 1 SOPG H2U 85 0.04286100 1.008000
86 L21_hL 1 SOPG H2V 86 0.04286100 1.008000
87 L21_cD 1 SOPG C3Y 87 0.00161900 12.010000
88 L21_hL 1 SOPG H3U 88 0.01952900 1.008000
89 L21_hL 1 SOPG H3V 89 0.01952900 1.008000
90 L21_cD 1 SOPG C4Y 90 -0.02296000 12.010000
91 L21_hL 1 SOPG H4U 91 0.01813400 1.008000
92 L21_hL 1 SOPG H4V 92 0.01813400 1.008000
93 L21_cD 1 SOPG C5Y 93 -0.01669200 12.010000
94 L21_hL 1 SOPG H5U 94 0.00869000 1.008000
95 L21_hL 1 SOPG H5V 95 0.00869000 1.008000
96 L21_cD 1 SOPG C6Y 96 -0.02378900 12.010000
97 L21_hL 1 SOPG H6U 97 0.00926600 1.008000
98 L21_hL 1 SOPG H6V 98 0.00926600 1.008000
99 L21_cD 1 SOPG C7Y 99 -0.01749500 12.010000
100 L21_hL 1 SOPG H7U 100 0.01959800 1.008000
101 L21_hL 1 SOPG H7V 101 0.01959800 1.008000
102 L21_cD 1 SOPG C8Y 102 0.03177500 12.010000
103 L21_hL 1 SOPG H8U 103 0.03268500 1.008000
104 L21_hL 1 SOPG H8V 104 0.03268500 1.008000
105 L21_cB 1 SOPG C9Y 105 -0.24422800 12.010000
106 L21_hB 1 SOPG H9U 106 0.13151200 1.008000
107 L21_cB 1 SOPG C10Y 107 -0.23928400 12.010000
108 L21_hB 1 SOPG H10U 108 0.12687800 1.008000
109 L21_cD 1 SOPG C11Y 109 0.02905900 12.010000
110 L21_hL 1 SOPG H11U 110 0.03353100 1.008000
111 L21_hL 1 SOPG H11V 111 0.03353100 1.008000
112 L21_cD 1 SOPG C12Y 112 -0.02635300 12.010000
113 L21_hL 1 SOPG H12U 113 0.01971700 1.008000
114 L21_hL 1 SOPG H12V 114 0.01971700 1.008000
115 L21_cD 1 SOPG C13Y 115 -0.01825700 12.010000
116 L21_hL 1 SOPG H13U 116 0.01380000 1.008000
117 L21_hL 1 SOPG H13V 117 0.01380000 1.008000
118 L21_cD 1 SOPG C14Y 118 -0.02484900 12.010000
119 L21_hL 1 SOPG H14U 119 0.00857200 1.008000
120 L21_hL 1 SOPG H14V 120 0.00857200 1.008000
121 L21_cD 1 SOPG C15Y 121 -0.02324700 12.010000
122 L21_hL 1 SOPG H15U 122 0.01040300 1.008000
123 L21_hL 1 SOPG H15V 123 0.01040300 1.008000
124 L21_cD 1 SOPG C16Y 124 -0.01248800 12.010000
125 L21_hL 1 SOPG H16U 125 0.01365900 1.008000
126 L21_hL 1 SOPG H16V 126 0.01365900 1.008000
127 L21_cD 1 SOPG C17Y 127 0.00868400 12.010000
128 L21_hL 1 SOPG H17U 128 0.01002600 1.008000
129 L21_hL 1 SOPG H17V 129 0.01002600 1.008000
130 L21_cD 1 SOPG C18Y 130 -0.11729000 12.010000
131 L21_hL 1 SOPG H18U 131 0.02662700 1.008000
132 L21_hL 1 SOPG H18V 132 0.02662700 1.008000
133 L21_hL 1 SOPG H18W 133 0.02662700 1.008000

[ bonds ]
;    ai     aj funct         c0         c1         c2         c3
     50     53     1   0.15080 274721.440000
     47     50     1   0.15350 253634.080000
     44     47     1   0.15350 253634.080000
     41     44     1   0.15350 253634.080000
     38     41     1   0.15350 253634.080000
     35     38     1   0.15350 253634.080000
     32     35     1   0.15350 253634.080000
     29     32     1   0.15350 253634.080000
     26     29     1   0.15350 253634.080000
     23     26     1   0.15350 253634.080000
     20     23     1   0.15350 253634.080000
     17     20     1   0.15350 253634.080000
     14     17     1   0.15350 253634.080000
     11     14     1   0.15350 253634.080000
      8     11     1   0.15350 253634.080000
      5      8     1   0.15350 253634.080000
      1      5     1   0.15350 253634.080000
     80     81     1   0.12140 542246.400000
     80     84     1   0.15080 274721.440000
     79     80     1   0.13430 344175.840000
     74     82     1   0.14260 262838.880000
     70     72     1   0.14260 262838.880000
     70     74     1   0.15350 253634.080000
     67     70     1   0.15350 253634.080000
     66     67     1   0.14390 252295.200000
     65     66     1   0.16100 192464.000000
     65     77     1   0.14800 439320.000000
     65     78     1   0.14800 439320.000000
     64     65     1   0.16100 192464.000000
     61     64     1   0.14390 252295.200000
     59     61     1   0.15350 253634.080000
     59     79     1   0.14390 252295.200000
     56     59     1   0.15350 253634.080000
     55     56     1   0.14390 252295.200000
     53     54     1   0.12140 542246.400000
     53     55     1   0.13430 344175.840000
    127    130     1   0.15350 253634.080000
    124    127     1   0.15350 253634.080000
    121    124     1   0.15350 253634.080000
    118    121     1   0.15350 253634.080000
    115    118     1   0.15350 253634.080000
    112    115     1   0.15350 253634.080000
    109    112     1   0.15350 253634.080000
    107    109     1   0.15080 274721.440000
    105    107     1   0.13240 493460.960000
    102    105     1   0.15080 274721.440000
     99    102     1   0.15350 253634.080000
     96     99     1   0.15350 253634.080000
     93     96     1   0.15350 253634.080000
     90     93     1   0.15350 253634.080000
     87     90     1   0.15350 253634.080000
     84     87     1   0.15350 253634.080000
     50     51     1   0.10920 282252.640000
     50     52     1   0.10920 282252.640000
     47     49     1   0.10920 282252.640000
     47     48     1   0.10920 282252.640000
     44     45     1   0.10920 282252.640000
     44     46     1   0.10920 282252.640000
     41     43     1   0.10920 282252.640000
     41     42     1   0.10920 282252.640000
     38     39     1   0.10920 282252.640000
     38     40     1   0.10920 282252.640000
     35     37     1   0.10920 282252.640000
     35     36     1   0.10920 282252.640000
     32     33     1   0.10920 282252.640000
     32     34     1   0.10920 282252.640000
     29     31     1   0.10920 282252.640000
     29     30     1   0.10920 282252.640000
     26     27     1   0.10920 282252.640000
     26     28     1   0.10920 282252.640000
     23     25     1   0.10920 282252.640000
     23     24     1   0.10920 282252.640000
     20     21     1   0.10920 282252.640000
     20     22     1   0.10920 282252.640000
     17     19     1   0.10920 282252.640000
     17     18     1   0.10920 282252.640000
     14     15     1   0.10920 282252.640000
     14     16     1   0.10920 282252.640000
     11     13     1   0.10920 282252.640000
     11     12     1   0.10920 282252.640000
      8      9     1   0.10920 282252.640000
      8     10     1   0.10920 282252.640000
      5      7     1   0.10920 282252.640000
      5      6     1   0.10920 282252.640000
      1      4     1   0.10920 282252.640000
      1      3     1   0.10920 282252.640000
      1      2     1   0.10920 282252.640000
     82     83     1   0.09740 309281.280000
     74     75     1   0.10930 281081.120000
     74     76     1   0.10930 281081.120000
     72     73     1   0.09740 309281.280000
     70     71     1   0.10930 281081.120000
     67     68     1   0.10930 281081.120000
     67     69     1   0.10930 281081.120000
     61     62     1   0.10930 281081.120000
     61     63     1   0.10930 281081.120000
     59     60     1   0.10930 281081.120000
     56     57     1   0.10930 281081.120000
     56     58     1   0.10930 281081.120000
    130    131     1   0.10920 282252.640000
    130    132     1   0.10920 282252.640000
    130    133     1   0.10920 282252.640000
    127    128     1   0.10920 282252.640000
    127    129     1   0.10920 282252.640000
    124    125     1   0.10920 282252.640000
    124    126     1   0.10920 282252.640000
    121    122     1   0.10920 282252.640000
    121    123     1   0.10920 282252.640000
    118    119     1   0.10920 282252.640000
    118    120     1   0.10920 282252.640000
    115    116     1   0.10920 282252.640000
    115    117     1   0.10920 282252.640000
    112    113     1   0.10920 282252.640000
    112    114     1   0.10920 282252.640000
    109    110     1   0.10920 282252.640000
    109    111     1   0.10920 282252.640000
    107    108     1   0.10870 288110.240000
    105    106     1   0.10870 288110.240000
    102    103     1   0.10920 282252.640000
    102    104     1   0.10920 282252.640000
     99    100     1   0.10920 282252.640000
     99    101     1   0.10920 282252.640000
     96     97     1   0.10920 282252.640000
     96     98     1   0.10920 282252.640000
     93     94     1   0.10920 282252.640000
     93     95     1   0.10920 282252.640000
     90     91     1   0.10920 282252.640000
     90     92     1   0.10920 282252.640000
     87     88     1   0.10920 282252.640000
     87     89     1   0.10920 282252.640000
     84     85     1   0.10920 282252.640000
     84     86     1   0.10920 282252.640000


[ pairs ]
; ai aj funct fudgeQQ qi qj sigma epsilon; source-specific LJ and charge scaling
1 9 2 0.83333333333333 -0.12006900007134 0.015626999994512 0.30005468824211 0.069194303392389
1 10 2 0.83333333333333 -0.12006900007134 0.015626999994512 0.30005468824211 0.069194303392389
1 11 2 0.83333333333333 -0.12006900007134 -0.032443999989024 0.33996695084507 0.076288266607901
2 6 2 0.83333333333333 0.027937999978049 0.0084830000054878 0.26014242576773 0.020919999936173
2 7 2 0.83333333333333 0.027937999978049 0.0084830000054878 0.26014242576773 0.020919999936173
2 8 2 0.83333333333333 0.027937999978049 -0.027653999989024 0.30005468824211 0.069194303392389
3 6 2 0.83333333333333 0.027937999978049 0.0084830000054878 0.26014242576773 0.020919999936173
3 7 2 0.83333333333333 0.027937999978049 0.0084830000054878 0.26014242576773 0.020919999936173
3 8 2 0.83333333333333 0.027937999978049 -0.027653999989024 0.30005468824211 0.069194303392389
4 6 2 0.83333333333333 0.027937999978049 0.0084830000054878 0.26014242576773 0.020919999936173
4 7 2 0.83333333333333 0.027937999978049 0.0084830000054878 0.26014242576773 0.020919999936173
4 8 2 0.83333333333333 0.027937999978049 -0.027653999989024 0.30005468824211 0.069194303392389
5 12 2 0.83333333333333 0.020665000027439 0.010253000005488 0.30005468824211 0.069194303392389
5 13 2 0.83333333333333 0.020665000027439 0.010253000005488 0.30005468824211 0.069194303392389
5 14 2 0.83333333333333 0.020665000027439 -0.013489000016463 0.33996695084507 0.076288266607901
6 9 2 0.83333333333333 0.0084830000054878 0.015626999994512 0.26014242576773 0.020919999936173
6 10 2 0.83333333333333 0.0084830000054878 0.015626999994512 0.26014242576773 0.020919999936173
6 11 2 0.83333333333333 0.0084830000054878 -0.032443999989024 0.30005468824211 0.069194303392389
7 9 2 0.83333333333333 0.0084830000054878 0.015626999994512 0.26014242576773 0.020919999936173
7 10 2 0.83333333333333 0.0084830000054878 0.015626999994512 0.26014242576773 0.020919999936173
7 11 2 0.83333333333333 0.0084830000054878 -0.032443999989024 0.30005468824211 0.069194303392389
8 15 2 0.83333333333333 -0.027653999989024 0.010073000005488 0.30005468824211 0.069194303392389
8 16 2 0.83333333333333 -0.027653999989024 0.010073000005488 0.30005468824211 0.069194303392389
8 17 2 0.83333333333333 -0.027653999989024 -0.01159 0.33996695084507 0.076288266607901
9 12 2 0.83333333333333 0.015626999994512 0.010253000005488 0.26014242576773 0.020919999936173
9 13 2 0.83333333333333 0.015626999994512 0.010253000005488 0.26014242576773 0.020919999936173
9 14 2 0.83333333333333 0.015626999994512 -0.013489000016463 0.30005468824211 0.069194303392389
10 12 2 0.83333333333333 0.015626999994512 0.010253000005488 0.26014242576773 0.020919999936173
10 13 2 0.83333333333333 0.015626999994512 0.010253000005488 0.26014242576773 0.020919999936173
10 14 2 0.83333333333333 0.015626999994512 -0.013489000016463 0.30005468824211 0.069194303392389
11 18 2 0.83333333333333 -0.032443999989024 0.0060220000219511 0.30005468824211 0.069194303392389
11 19 2 0.83333333333333 -0.032443999989024 0.0060220000219511 0.30005468824211 0.069194303392389
11 20 2 0.83333333333333 -0.032443999989024 -0.019153000005488 0.33996695084507 0.076288266607901
12 15 2 0.83333333333333 0.010253000005488 0.010073000005488 0.26014242576773 0.020919999936173
12 16 2 0.83333333333333 0.010253000005488 0.010073000005488 0.26014242576773 0.020919999936173
12 17 2 0.83333333333333 0.010253000005488 -0.01159 0.30005468824211 0.069194303392389
13 15 2 0.83333333333333 0.010253000005488 0.010073000005488 0.26014242576773 0.020919999936173
13 16 2 0.83333333333333 0.010253000005488 0.010073000005488 0.26014242576773 0.020919999936173
13 17 2 0.83333333333333 0.010253000005488 -0.01159 0.30005468824211 0.069194303392389
14 21 2 0.83333333333333 -0.013489000016463 0.0081979999780489 0.30005468824211 0.069194303392389
14 22 2 0.83333333333333 -0.013489000016463 0.0081979999780489 0.30005468824211 0.069194303392389
14 23 2 0.83333333333333 -0.013489000016463 -0.017093000005488 0.33996695084507 0.076288266607901
15 18 2 0.83333333333333 0.010073000005488 0.0060220000219511 0.26014242576773 0.020919999936173
15 19 2 0.83333333333333 0.010073000005488 0.0060220000219511 0.26014242576773 0.020919999936173
15 20 2 0.83333333333333 0.010073000005488 -0.019153000005488 0.30005468824211 0.069194303392389
16 18 2 0.83333333333333 0.010073000005488 0.0060220000219511 0.26014242576773 0.020919999936173
16 19 2 0.83333333333333 0.010073000005488 0.0060220000219511 0.26014242576773 0.020919999936173
16 20 2 0.83333333333333 0.010073000005488 -0.019153000005488 0.30005468824211 0.069194303392389
17 24 2 0.83333333333333 -0.01159 0.010206000010976 0.30005468824211 0.069194303392389
17 25 2 0.83333333333333 -0.01159 0.010206000010976 0.30005468824211 0.069194303392389
17 26 2 0.83333333333333 -0.01159 -0.026417999978049 0.33996695084507 0.076288266607901
18 21 2 0.83333333333333 0.0060220000219511 0.0081979999780489 0.26014242576773 0.020919999936173
18 22 2 0.83333333333333 0.0060220000219511 0.0081979999780489 0.26014242576773 0.020919999936173
18 23 2 0.83333333333333 0.0060220000219511 -0.017093000005488 0.30005468824211 0.069194303392389
19 21 2 0.83333333333333 0.0060220000219511 0.0081979999780489 0.26014242576773 0.020919999936173
19 22 2 0.83333333333333 0.0060220000219511 0.0081979999780489 0.26014242576773 0.020919999936173
19 23 2 0.83333333333333 0.0060220000219511 -0.017093000005488 0.30005468824211 0.069194303392389
20 27 2 0.83333333333333 -0.019153000005488 0.010824999972561 0.30005468824211 0.069194303392389
20 28 2 0.83333333333333 -0.019153000005488 0.010824999972561 0.30005468824211 0.069194303392389
20 29 2 0.83333333333333 -0.019153000005488 -0.017996999994512 0.33996695084507 0.076288266607901
21 24 2 0.83333333333333 0.0081979999780489 0.010206000010976 0.26014242576773 0.020919999936173
21 25 2 0.83333333333333 0.0081979999780489 0.010206000010976 0.26014242576773 0.020919999936173
21 26 2 0.83333333333333 0.0081979999780489 -0.026417999978049 0.30005468824211 0.069194303392389
22 24 2 0.83333333333333 0.0081979999780489 0.010206000010976 0.26014242576773 0.020919999936173
22 25 2 0.83333333333333 0.0081979999780489 0.010206000010976 0.26014242576773 0.020919999936173
22 26 2 0.83333333333333 0.0081979999780489 -0.026417999978049 0.30005468824211 0.069194303392389
23 30 2 0.83333333333333 -0.017093000005488 0.0095950000274389 0.30005468824211 0.069194303392389
23 31 2 0.83333333333333 -0.017093000005488 0.0095950000274389 0.30005468824211 0.069194303392389
23 32 2 0.83333333333333 -0.017093000005488 -0.014623000005488 0.33996695084507 0.076288266607901
24 27 2 0.83333333333333 0.010206000010976 0.010824999972561 0.26014242576773 0.020919999936173
24 28 2 0.83333333333333 0.010206000010976 0.010824999972561 0.26014242576773 0.020919999936173
24 29 2 0.83333333333333 0.010206000010976 -0.017996999994512 0.30005468824211 0.069194303392389
25 27 2 0.83333333333333 0.010206000010976 0.010824999972561 0.26014242576773 0.020919999936173
25 28 2 0.83333333333333 0.010206000010976 0.010824999972561 0.26014242576773 0.020919999936173
25 29 2 0.83333333333333 0.010206000010976 -0.017996999994512 0.30005468824211 0.069194303392389
26 33 2 0.83333333333333 -0.026417999978049 0.0073260000109756 0.30005468824211 0.069194303392389
26 34 2 0.83333333333333 -0.026417999978049 0.0073260000109756 0.30005468824211 0.069194303392389
26 35 2 0.83333333333333 -0.026417999978049 -0.019469000016463 0.33996695084507 0.076288266607901
27 30 2 0.83333333333333 0.010824999972561 0.0095950000274389 0.26014242576773 0.020919999936173
27 31 2 0.83333333333333 0.010824999972561 0.0095950000274389 0.26014242576773 0.020919999936173
27 32 2 0.83333333333333 0.010824999972561 -0.014623000005488 0.30005468824211 0.069194303392389
28 30 2 0.83333333333333 0.010824999972561 0.0095950000274389 0.26014242576773 0.020919999936173
28 31 2 0.83333333333333 0.010824999972561 0.0095950000274389 0.26014242576773 0.020919999936173
28 32 2 0.83333333333333 0.010824999972561 -0.014623000005488 0.30005468824211 0.069194303392389
29 36 2 0.83333333333333 -0.017996999994512 0.0092920000219511 0.30005468824211 0.069194303392389
29 37 2 0.83333333333333 -0.017996999994512 0.0092920000219511 0.30005468824211 0.069194303392389
29 38 2 0.83333333333333 -0.017996999994512 -0.037626999994512 0.33996695084507 0.076288266607901
30 33 2 0.83333333333333 0.0095950000274389 0.0073260000109756 0.26014242576773 0.020919999936173
30 34 2 0.83333333333333 0.0095950000274389 0.0073260000109756 0.26014242576773 0.020919999936173
30 35 2 0.83333333333333 0.0095950000274389 -0.019469000016463 0.30005468824211 0.069194303392389
31 33 2 0.83333333333333 0.0095950000274389 0.0073260000109756 0.26014242576773 0.020919999936173
31 34 2 0.83333333333333 0.0095950000274389 0.0073260000109756 0.26014242576773 0.020919999936173
31 35 2 0.83333333333333 0.0095950000274389 -0.019469000016463 0.30005468824211 0.069194303392389
32 39 2 0.83333333333333 -0.014623000005488 0.01774 0.30005468824211 0.069194303392389
32 40 2 0.83333333333333 -0.014623000005488 0.01774 0.30005468824211 0.069194303392389
32 41 2 0.83333333333333 -0.014623000005488 -0.013443000005488 0.33996695084507 0.076288266607901
33 36 2 0.83333333333333 0.0073260000109756 0.0092920000219511 0.26014242576773 0.020919999936173
33 37 2 0.83333333333333 0.0073260000109756 0.0092920000219511 0.26014242576773 0.020919999936173
33 38 2 0.83333333333333 0.0073260000109756 -0.037626999994512 0.30005468824211 0.069194303392389
34 36 2 0.83333333333333 0.0073260000109756 0.0092920000219511 0.26014242576773 0.020919999936173
34 37 2 0.83333333333333 0.0073260000109756 0.0092920000219511 0.26014242576773 0.020919999936173
34 38 2 0.83333333333333 0.0073260000109756 -0.037626999994512 0.30005468824211 0.069194303392389
35 42 2 0.83333333333333 -0.019469000016463 0.0081909999835367 0.30005468824211 0.069194303392389
35 43 2 0.83333333333333 -0.019469000016463 0.0081909999835367 0.30005468824211 0.069194303392389
35 44 2 0.83333333333333 -0.019469000016463 -0.059791999912195 0.33996695084507 0.076288266607901
36 39 2 0.83333333333333 0.0092920000219511 0.01774 0.26014242576773 0.020919999936173
36 40 2 0.83333333333333 0.0092920000219511 0.01774 0.26014242576773 0.020919999936173
36 41 2 0.83333333333333 0.0092920000219511 -0.013443000005488 0.30005468824211 0.069194303392389
37 39 2 0.83333333333333 0.0092920000219511 0.01774 0.26014242576773 0.020919999936173
37 40 2 0.83333333333333 0.0092920000219511 0.01774 0.26014242576773 0.020919999936173
37 41 2 0.83333333333333 0.0092920000219511 -0.013443000005488 0.30005468824211 0.069194303392389
38 45 2 0.83333333333333 -0.037626999994512 0.024240999983537 0.30005468824211 0.069194303392389
38 46 2 0.83333333333333 -0.037626999994512 0.024240999983537 0.30005468824211 0.069194303392389
38 47 2 0.83333333333333 -0.037626999994512 -0.000128 0.33996695084507 0.076288266607901
39 42 2 0.83333333333333 0.01774 0.0081909999835367 0.26014242576773 0.020919999936173
39 43 2 0.83333333333333 0.01774 0.0081909999835367 0.26014242576773 0.020919999936173
39 44 2 0.83333333333333 0.01774 -0.059791999912195 0.30005468824211 0.069194303392389
40 42 2 0.83333333333333 0.01774 0.0081909999835367 0.26014242576773 0.020919999936173
40 43 2 0.83333333333333 0.01774 0.0081909999835367 0.26014242576773 0.020919999936173
40 44 2 0.83333333333333 0.01774 -0.059791999912195 0.30005468824211 0.069194303392389
41 48 2 0.83333333333333 -0.013443000005488 0.013886000010976 0.30005468824211 0.069194303392389
41 49 2 0.83333333333333 -0.013443000005488 0.013886000010976 0.30005468824211 0.069194303392389
41 50 2 0.83333333333333 -0.013443000005488 -0.11702000021951 0.33996695084507 0.076288266607901
42 45 2 0.83333333333333 0.0081909999835367 0.024240999983537 0.26014242576773 0.020919999936173
42 46 2 0.83333333333333 0.0081909999835367 0.024240999983537 0.26014242576773 0.020919999936173
42 47 2 0.83333333333333 0.0081909999835367 -0.000128 0.30005468824211 0.069194303392389
43 45 2 0.83333333333333 0.0081909999835367 0.024240999983537 0.26014242576773 0.020919999936173
43 46 2 0.83333333333333 0.0081909999835367 0.024240999983537 0.26014242576773 0.020919999936173
43 47 2 0.83333333333333 0.0081909999835367 -0.000128 0.30005468824211 0.069194303392389
44 51 2 0.83333333333333 -0.059791999912195 0.051806999994512 0.30005468824211 0.069194303392389
44 52 2 0.83333333333333 -0.059791999912195 0.051806999994512 0.30005468824211 0.069194303392389
44 53 2 0.83333333333333 -0.059791999912195 0.87700599814513 0.33996695087407 0.20291752963184
45 48 2 0.83333333333333 0.024240999983537 0.013886000010976 0.26014242576773 0.020919999936173
45 49 2 0.83333333333333 0.024240999983537 0.013886000010976 0.26014242576773 0.020919999936173
45 50 2 0.83333333333333 0.024240999983537 -0.11702000021951 0.30005468824211 0.069194303392389
46 48 2 0.83333333333333 0.024240999983537 0.013886000010976 0.26014242576773 0.020919999936173
46 49 2 0.83333333333333 0.024240999983537 0.013886000010976 0.26014242576773 0.020919999936173
46 50 2 0.83333333333333 0.024240999983537 -0.11702000021951 0.30005468824211 0.069194303392389
47 54 2 0.83333333333333 -0.000128 -0.64926499947866 0.31797957047595 0.31708813257529
47 55 2 0.83333333333333 -0.000128 -0.585165001125 0.31998409262799 0.28529542121767
48 51 2 0.83333333333333 0.013886000010976 0.051806999994512 0.26014242576773 0.020919999936173
48 52 2 0.83333333333333 0.013886000010976 0.051806999994512 0.26014242576773 0.020919999936173
48 53 2 0.83333333333333 0.013886000010976 0.87700599814513 0.30005468825729 0.061349482798597
49 51 2 0.83333333333333 0.013886000010976 0.051806999994512 0.26014242576773 0.020919999936173
49 52 2 0.83333333333333 0.013886000010976 0.051806999994512 0.26014242576773 0.020919999936173
49 53 2 0.83333333333333 0.013886000010976 0.87700599814513 0.30005468825729 0.061349482798597
50 56 2 0.83333333333333 -0.11702000021951 0.29511899979695 0.33996695084507 0.2288647998237
51 54 2 0.83333333333333 0.051806999994512 -0.64926499947866 0.27806730790153 0.095867483596702
51 55 2 0.83333333333333 0.051806999994512 -0.585165001125 0.2800718300513 0.086255369632554
52 54 2 0.83333333333333 0.051806999994512 -0.64926499947866 0.27806730790153 0.095867483596702
52 55 2 0.83333333333333 0.051806999994512 -0.585165001125 0.2800718300513 0.086255369632554
53 57 2 0.83333333333333 0.87700599814513 0.033796999994512 0.29355112761526 0.076870681673027
53 58 2 0.83333333333333 0.87700599814513 0.033796999994512 0.29355112761526 0.076870681673027
53 59 2 0.83333333333333 0.87700599814513 0.35380700021402 0.33996695087407 0.20291752963184
54 56 2 0.83333333333333 -0.64926499947866 0.29511899979695 0.31797957047595 0.31708813257529
55 60 2 0.83333333333333 -0.585165001125 0.037487999978049 0.27356826939641 0.10807766839674
55 61 2 0.83333333333333 -0.585165001125 0.043713000005488 0.31998409262799 0.28529542121767
55 79 2 0.83333333333333 -0.585165001125 -0.5991309988311 0.30000123432245 0.35564000022068
56 62 2 0.83333333333333 0.29511899979695 0.091040999764025 0.29355112776543 0.086700213146672
56 63 2 0.83333333333333 0.29511899979695 0.091040999764025 0.29355112776543 0.086700213146672
56 64 2 0.83333333333333 0.29511899979695 -0.54609800025244 0.31998409262799 0.28529542121767
56 80 2 0.83333333333333 0.29511899979695 0.88366899897378 0.33996695087407 0.20291752963184
57 60 2 0.83333333333333 0.033796999994512 0.037487999978049 0.24713530426422 0.032844400205981
57 61 2 0.83333333333333 0.033796999994512 0.043713000005488 0.29355112776543 0.086700213146672
57 79 2 0.83333333333333 0.033796999994512 -0.5991309988311 0.27356826939641 0.10807766839674
58 60 2 0.83333333333333 0.033796999994512 0.037487999978049 0.24713530426422 0.032844400205981
58 61 2 0.83333333333333 0.033796999994512 0.043713000005488 0.29355112776543 0.086700213146672
58 79 2 0.83333333333333 0.033796999994512 -0.5991309988311 0.27356826939641 0.10807766839674
59 65 2 0.83333333333333 0.35380700021402 1.3804639974098 0.35707220617836 0.30944633210394
59 81 2 0.83333333333333 0.35380700021402 -0.6557620004061 0.31797957047595 0.31708813257529
59 84 2 0.83333333333333 0.35380700021402 -0.14341799992317 0.33996695084507 0.2288647998237
60 62 2 0.83333333333333 0.037487999978049 0.091040999764025 0.24713530426422 0.032844400205981
60 63 2 0.83333333333333 0.037487999978049 0.091040999764025 0.24713530426422 0.032844400205981
60 64 2 0.83333333333333 0.037487999978049 -0.54609800025244 0.27356826939641 0.10807766839674
60 80 2 0.83333333333333 0.037487999978049 0.88366899897378 0.29355112761526 0.076870681673027
61 66 2 0.83333333333333 0.043713000005488 -0.5343080000878 0.31998409262799 0.28529542121767
61 77 2 0.83333333333333 0.043713000005488 -0.87344399993415 0.31797957047595 0.31708813257529
61 78 2 0.83333333333333 0.043713000005488 -0.87344399993415 0.31797957047595 0.31708813257529
61 80 2 0.83333333333333 0.043713000005488 0.88366899897378 0.33996695087407 0.20291752963184
62 65 2 0.83333333333333 0.091040999764025 1.3804639974098 0.31065638299277 0.11722669057481
62 79 2 0.83333333333333 0.091040999764025 -0.5991309988311 0.27356826939641 0.10807766839674
63 65 2 0.83333333333333 0.091040999764025 1.3804639974098 0.31065638299277 0.11722669057481
63 79 2 0.83333333333333 0.091040999764025 -0.5991309988311 0.27356826939641 0.10807766839674
64 67 2 0.83333333333333 -0.54609800025244 -0.056705999791464 0.31998409262799 0.28529542121767
64 79 2 0.83333333333333 -0.54609800025244 -0.5991309988311 0.30000123432245 0.35564000022068
65 68 2 0.83333333333333 1.3804639974098 0.093353999769513 0.31065638299277 0.11722669057481
65 69 2 0.83333333333333 1.3804639974098 0.093353999769513 0.31065638299277 0.11722669057481
65 70 2 0.83333333333333 1.3804639974098 0.33681600017561 0.35707220617836 0.30944633210394
66 71 2 0.83333333333333 -0.5343080000878 0.030042000021951 0.27356826939641 0.10807766839674
66 72 2 0.83333333333333 -0.5343080000878 -0.72619200100975 0.30332428655498 0.39564803104654
66 74 2 0.83333333333333 -0.5343080000878 0.19359699982988 0.31998409262799 0.28529542121767
67 73 2 0.83333333333333 -0.056705999791464 0.43952299984085 0.22343739849812 0.086700213704004
67 75 2 0.83333333333333 -0.056705999791464 0.034715000027439 0.29355112776543 0.086700213146672
67 76 2 0.83333333333333 -0.056705999791464 0.034715000027439 0.29355112776543 0.086700213146672
67 77 2 0.83333333333333 -0.056705999791464 -0.87344399993415 0.31797957047595 0.31708813257529
67 78 2 0.83333333333333 -0.056705999791464 -0.87344399993415 0.31797957047595 0.31708813257529
67 82 2 0.83333333333333 -0.056705999791464 -0.70087099872135 0.32330714485393 0.31738997747947
68 71 2 0.83333333333333 0.093353999769513 0.030042000021951 0.24713530426422 0.032844400205981
68 72 2 0.83333333333333 0.093353999769513 -0.72619200100975 0.27689132152878 0.12023595996226
68 74 2 0.83333333333333 0.093353999769513 0.19359699982988 0.29355112776543 0.086700213146672
69 71 2 0.83333333333333 0.093353999769513 0.030042000021951 0.24713530426422 0.032844400205981
69 72 2 0.83333333333333 0.093353999769513 -0.72619200100975 0.27689132152878 0.12023595996226
69 74 2 0.83333333333333 0.093353999769513 0.19359699982988 0.29355112776543 0.086700213146672
70 83 2 0.83333333333333 0.33681600017561 0.42332799975854 0.22343739849812 0.086700213704004
71 73 2 0.83333333333333 0.030042000021951 0.43952299984085 0.17702157530218 0.03284439999243
71 75 2 0.83333333333333 0.030042000021951 0.034715000027439 0.24713530426422 0.032844400205981
71 76 2 0.83333333333333 0.030042000021951 0.034715000027439 0.24713530426422 0.032844400205981
71 82 2 0.83333333333333 0.030042000021951 -0.70087099872135 0.27689132152878 0.12023595996226
72 75 2 0.83333333333333 -0.72619200100975 0.034715000027439 0.27689132152878 0.12023595996226
72 76 2 0.83333333333333 -0.72619200100975 0.034715000027439 0.27689132152878 0.12023595996226
72 82 2 0.83333333333333 -0.72619200100975 -0.70087099872135 0.30664733874581 0.44015680052028
73 74 2 0.83333333333333 0.43952299984085 0.19359699982988 0.22343739849812 0.086700213704004
75 83 2 0.83333333333333 0.034715000027439 0.42332799975854 0.17702157530218 0.03284439999243
76 83 2 0.83333333333333 0.034715000027439 0.42332799975854 0.17702157530218 0.03284439999243
79 85 2 0.83333333333333 -0.5991309988311 0.042860999983537 0.2800718300513 0.086255369632554
79 86 2 0.83333333333333 -0.5991309988311 0.042860999983537 0.2800718300513 0.086255369632554
79 87 2 0.83333333333333 -0.5991309988311 0.001619 0.31998409262799 0.28529542121767
80 88 2 0.83333333333333 0.88366899897378 0.019529000016463 0.30005468825729 0.061349482798597
80 89 2 0.83333333333333 0.88366899897378 0.019529000016463 0.30005468825729 0.061349482798597
80 90 2 0.83333333333333 0.88366899897378 -0.02296 0.33996695087407 0.20291752963184
81 85 2 0.83333333333333 -0.6557620004061 0.042860999983537 0.27806730790153 0.095867483596702
81 86 2 0.83333333333333 -0.6557620004061 0.042860999983537 0.27806730790153 0.095867483596702
81 87 2 0.83333333333333 -0.6557620004061 0.001619 0.31797957047595 0.31708813257529
84 91 2 0.83333333333333 -0.14341799992317 0.018133999989024 0.30005468824211 0.069194303392389
84 92 2 0.83333333333333 -0.14341799992317 0.018133999989024 0.30005468824211 0.069194303392389
84 93 2 0.83333333333333 -0.14341799992317 -0.016692000021951 0.33996695084507 0.076288266607901
85 88 2 0.83333333333333 0.042860999983537 0.019529000016463 0.26014242576773 0.020919999936173
85 89 2 0.83333333333333 0.042860999983537 0.019529000016463 0.26014242576773 0.020919999936173
85 90 2 0.83333333333333 0.042860999983537 -0.02296 0.30005468824211 0.069194303392389
86 88 2 0.83333333333333 0.042860999983537 0.019529000016463 0.26014242576773 0.020919999936173
86 89 2 0.83333333333333 0.042860999983537 0.019529000016463 0.26014242576773 0.020919999936173
86 90 2 0.83333333333333 0.042860999983537 -0.02296 0.30005468824211 0.069194303392389
87 94 2 0.83333333333333 0.001619 0.00869 0.30005468824211 0.069194303392389
87 95 2 0.83333333333333 0.001619 0.00869 0.30005468824211 0.069194303392389
87 96 2 0.83333333333333 0.001619 -0.023789000016463 0.33996695084507 0.076288266607901
88 91 2 0.83333333333333 0.019529000016463 0.018133999989024 0.26014242576773 0.020919999936173
88 92 2 0.83333333333333 0.019529000016463 0.018133999989024 0.26014242576773 0.020919999936173
88 93 2 0.83333333333333 0.019529000016463 -0.016692000021951 0.30005468824211 0.069194303392389
89 91 2 0.83333333333333 0.019529000016463 0.018133999989024 0.26014242576773 0.020919999936173
89 92 2 0.83333333333333 0.019529000016463 0.018133999989024 0.26014242576773 0.020919999936173
89 93 2 0.83333333333333 0.019529000016463 -0.016692000021951 0.30005468824211 0.069194303392389
90 97 2 0.83333333333333 -0.02296 0.0092660000109756 0.30005468824211 0.069194303392389
90 98 2 0.83333333333333 -0.02296 0.0092660000109756 0.30005468824211 0.069194303392389
90 99 2 0.83333333333333 -0.02296 -0.017495000027439 0.33996695084507 0.076288266607901
91 94 2 0.83333333333333 0.018133999989024 0.00869 0.26014242576773 0.020919999936173
91 95 2 0.83333333333333 0.018133999989024 0.00869 0.26014242576773 0.020919999936173
91 96 2 0.83333333333333 0.018133999989024 -0.023789000016463 0.30005468824211 0.069194303392389
92 94 2 0.83333333333333 0.018133999989024 0.00869 0.26014242576773 0.020919999936173
92 95 2 0.83333333333333 0.018133999989024 0.00869 0.26014242576773 0.020919999936173
92 96 2 0.83333333333333 0.018133999989024 -0.023789000016463 0.30005468824211 0.069194303392389
93 100 2 0.83333333333333 -0.016692000021951 0.019597999978049 0.30005468824211 0.069194303392389
93 101 2 0.83333333333333 -0.016692000021951 0.019597999978049 0.30005468824211 0.069194303392389
93 102 2 0.83333333333333 -0.016692000021951 0.031775000027439 0.33996695084507 0.076288266607901
94 97 2 0.83333333333333 0.00869 0.0092660000109756 0.26014242576773 0.020919999936173
94 98 2 0.83333333333333 0.00869 0.0092660000109756 0.26014242576773 0.020919999936173
94 99 2 0.83333333333333 0.00869 -0.017495000027439 0.30005468824211 0.069194303392389
95 97 2 0.83333333333333 0.00869 0.0092660000109756 0.26014242576773 0.020919999936173
95 98 2 0.83333333333333 0.00869 0.0092660000109756 0.26014242576773 0.020919999936173
95 99 2 0.83333333333333 0.00869 -0.017495000027439 0.30005468824211 0.069194303392389
96 103 2 0.83333333333333 -0.023789000016463 0.032685000027439 0.30005468824211 0.069194303392389
96 104 2 0.83333333333333 -0.023789000016463 0.032685000027439 0.30005468824211 0.069194303392389
96 105 2 0.83333333333333 -0.023789000016463 -0.24422799975854 0.33996695087407 0.20291752963184
97 100 2 0.83333333333333 0.0092660000109756 0.019597999978049 0.26014242576773 0.020919999936173
97 101 2 0.83333333333333 0.0092660000109756 0.019597999978049 0.26014242576773 0.020919999936173
97 102 2 0.83333333333333 0.0092660000109756 0.031775000027439 0.30005468824211 0.069194303392389
98 100 2 0.83333333333333 0.0092660000109756 0.019597999978049 0.26014242576773 0.020919999936173
98 101 2 0.83333333333333 0.0092660000109756 0.019597999978049 0.26014242576773 0.020919999936173
98 102 2 0.83333333333333 0.0092660000109756 0.031775000027439 0.30005468824211 0.069194303392389
99 106 2 0.83333333333333 -0.017495000027439 0.13151200013171 0.28134581515096 0.057892107742859
99 107 2 0.83333333333333 -0.017495000027439 -0.23928399982439 0.33996695087407 0.20291752963184
100 103 2 0.83333333333333 0.019597999978049 0.032685000027439 0.26014242576773 0.020919999936173
100 104 2 0.83333333333333 0.019597999978049 0.032685000027439 0.26014242576773 0.020919999936173
100 105 2 0.83333333333333 0.019597999978049 -0.24422799975854 0.30005468825729 0.061349482798597
101 103 2 0.83333333333333 0.019597999978049 0.032685000027439 0.26014242576773 0.020919999936173
101 104 2 0.83333333333333 0.019597999978049 0.032685000027439 0.26014242576773 0.020919999936173
101 105 2 0.83333333333333 0.019597999978049 -0.24422799975854 0.30005468825729 0.061349482798597
102 108 2 0.83333333333333 0.031775000027439 0.12687800003293 0.28134581515096 0.057892107742859
102 109 2 0.83333333333333 0.031775000027439 0.029059000016463 0.33996695084507 0.2288647998237
103 106 2 0.83333333333333 0.032685000027439 0.13151200013171 0.24143355271439 0.017502927720476
103 107 2 0.83333333333333 0.032685000027439 -0.23928399982439 0.30005468825729 0.061349482798597
104 106 2 0.83333333333333 0.032685000027439 0.13151200013171 0.24143355271439 0.017502927720476
104 107 2 0.83333333333333 0.032685000027439 -0.23928399982439 0.30005468825729 0.061349482798597
105 110 2 0.83333333333333 -0.24422799975854 0.033530999983537 0.30005468825729 0.061349482798597
105 111 2 0.83333333333333 -0.24422799975854 0.033530999983537 0.30005468825729 0.061349482798597
105 112 2 0.83333333333333 -0.24422799975854 -0.026353000005488 0.33996695087407 0.20291752963184
106 108 2 0.83333333333333 0.13151200013171 0.12687800003293 0.22272467949703 0.014644000015013
106 109 2 0.83333333333333 0.13151200013171 0.029059000016463 0.28134581515096 0.057892107742859
107 113 2 0.83333333333333 -0.23928399982439 0.019716999994512 0.30005468825729 0.061349482798597
107 114 2 0.83333333333333 -0.23928399982439 0.019716999994512 0.30005468825729 0.061349482798597
107 115 2 0.83333333333333 -0.23928399982439 -0.018256999994512 0.33996695087407 0.20291752963184
108 110 2 0.83333333333333 0.12687800003293 0.033530999983537 0.24143355271439 0.017502927720476
108 111 2 0.83333333333333 0.12687800003293 0.033530999983537 0.24143355271439 0.017502927720476
108 112 2 0.83333333333333 0.12687800003293 -0.026353000005488 0.28134581515096 0.057892107742859
109 116 2 0.83333333333333 0.029059000016463 0.0138 0.30005468824211 0.069194303392389
109 117 2 0.83333333333333 0.029059000016463 0.0138 0.30005468824211 0.069194303392389
109 118 2 0.83333333333333 0.029059000016463 -0.024849000016463 0.33996695084507 0.076288266607901
110 113 2 0.83333333333333 0.033530999983537 0.019716999994512 0.26014242576773 0.020919999936173
110 114 2 0.83333333333333 0.033530999983537 0.019716999994512 0.26014242576773 0.020919999936173
110 115 2 0.83333333333333 0.033530999983537 -0.018256999994512 0.30005468824211 0.069194303392389
111 113 2 0.83333333333333 0.033530999983537 0.019716999994512 0.26014242576773 0.020919999936173
111 114 2 0.83333333333333 0.033530999983537 0.019716999994512 0.26014242576773 0.020919999936173
111 115 2 0.83333333333333 0.033530999983537 -0.018256999994512 0.30005468824211 0.069194303392389
112 119 2 0.83333333333333 -0.026353000005488 0.0085720000219511 0.30005468824211 0.069194303392389
112 120 2 0.83333333333333 -0.026353000005488 0.0085720000219511 0.30005468824211 0.069194303392389
112 121 2 0.83333333333333 -0.026353000005488 -0.023246999994512 0.33996695084507 0.076288266607901
113 116 2 0.83333333333333 0.019716999994512 0.0138 0.26014242576773 0.020919999936173
113 117 2 0.83333333333333 0.019716999994512 0.0138 0.26014242576773 0.020919999936173
113 118 2 0.83333333333333 0.019716999994512 -0.024849000016463 0.30005468824211 0.069194303392389
114 116 2 0.83333333333333 0.019716999994512 0.0138 0.26014242576773 0.020919999936173
114 117 2 0.83333333333333 0.019716999994512 0.0138 0.26014242576773 0.020919999936173
114 118 2 0.83333333333333 0.019716999994512 -0.024849000016463 0.30005468824211 0.069194303392389
115 122 2 0.83333333333333 -0.018256999994512 0.010403000005488 0.30005468824211 0.069194303392389
115 123 2 0.83333333333333 -0.018256999994512 0.010403000005488 0.30005468824211 0.069194303392389
115 124 2 0.83333333333333 -0.018256999994512 -0.012487999978049 0.33996695084507 0.076288266607901
116 119 2 0.83333333333333 0.0138 0.0085720000219511 0.26014242576773 0.020919999936173
116 120 2 0.83333333333333 0.0138 0.0085720000219511 0.26014242576773 0.020919999936173
116 121 2 0.83333333333333 0.0138 -0.023246999994512 0.30005468824211 0.069194303392389
117 119 2 0.83333333333333 0.0138 0.0085720000219511 0.26014242576773 0.020919999936173
117 120 2 0.83333333333333 0.0138 0.0085720000219511 0.26014242576773 0.020919999936173
117 121 2 0.83333333333333 0.0138 -0.023246999994512 0.30005468824211 0.069194303392389
118 125 2 0.83333333333333 -0.024849000016463 0.013659000016463 0.30005468824211 0.069194303392389
118 126 2 0.83333333333333 -0.024849000016463 0.013659000016463 0.30005468824211 0.069194303392389
118 127 2 0.83333333333333 -0.024849000016463 0.0086839999890244 0.33996695084507 0.076288266607901
119 122 2 0.83333333333333 0.0085720000219511 0.010403000005488 0.26014242576773 0.020919999936173
119 123 2 0.83333333333333 0.0085720000219511 0.010403000005488 0.26014242576773 0.020919999936173
119 124 2 0.83333333333333 0.0085720000219511 -0.012487999978049 0.30005468824211 0.069194303392389
120 122 2 0.83333333333333 0.0085720000219511 0.010403000005488 0.26014242576773 0.020919999936173
120 123 2 0.83333333333333 0.0085720000219511 0.010403000005488 0.26014242576773 0.020919999936173
120 124 2 0.83333333333333 0.0085720000219511 -0.012487999978049 0.30005468824211 0.069194303392389
121 128 2 0.83333333333333 -0.023246999994512 0.010026000010976 0.30005468824211 0.069194303392389
121 129 2 0.83333333333333 -0.023246999994512 0.010026000010976 0.30005468824211 0.069194303392389
121 130 2 0.83333333333333 -0.023246999994512 -0.11729000016463 0.33996695084507 0.076288266607901
122 125 2 0.83333333333333 0.010403000005488 0.013659000016463 0.26014242576773 0.020919999936173
122 126 2 0.83333333333333 0.010403000005488 0.013659000016463 0.26014242576773 0.020919999936173
122 127 2 0.83333333333333 0.010403000005488 0.0086839999890244 0.30005468824211 0.069194303392389
123 125 2 0.83333333333333 0.010403000005488 0.013659000016463 0.26014242576773 0.020919999936173
123 126 2 0.83333333333333 0.010403000005488 0.013659000016463 0.26014242576773 0.020919999936173
123 127 2 0.83333333333333 0.010403000005488 0.0086839999890244 0.30005468824211 0.069194303392389
124 131 2 0.83333333333333 -0.012487999978049 0.026626999994512 0.30005468824211 0.069194303392389
124 132 2 0.83333333333333 -0.012487999978049 0.026626999994512 0.30005468824211 0.069194303392389
124 133 2 0.83333333333333 -0.012487999978049 0.026626999994512 0.30005468824211 0.069194303392389
125 128 2 0.83333333333333 0.013659000016463 0.010026000010976 0.26014242576773 0.020919999936173
125 129 2 0.83333333333333 0.013659000016463 0.010026000010976 0.26014242576773 0.020919999936173
125 130 2 0.83333333333333 0.013659000016463 -0.11729000016463 0.30005468824211 0.069194303392389
126 128 2 0.83333333333333 0.013659000016463 0.010026000010976 0.26014242576773 0.020919999936173
126 129 2 0.83333333333333 0.013659000016463 0.010026000010976 0.26014242576773 0.020919999936173
126 130 2 0.83333333333333 0.013659000016463 -0.11729000016463 0.30005468824211 0.069194303392389
128 131 2 0.83333333333333 0.010026000010976 0.026626999994512 0.26014242576773 0.020919999936173
128 132 2 0.83333333333333 0.010026000010976 0.026626999994512 0.26014242576773 0.020919999936173
128 133 2 0.83333333333333 0.010026000010976 0.026626999994512 0.26014242576773 0.020919999936173
129 131 2 0.83333333333333 0.010026000010976 0.026626999994512 0.26014242576773 0.020919999936173
129 132 2 0.83333333333333 0.010026000010976 0.026626999994512 0.26014242576773 0.020919999936173
129 133 2 0.83333333333333 0.010026000010976 0.026626999994512 0.26014242576773 0.020919999936173

[ angles ]
;    ai     aj     ak funct         c0         c1         c2         c3
     50     53     54     1   123.1100526 569.275040
     50     53     55     1   111.9600481 579.567680
     47     50     53     1   110.5300474 533.794720
     44     47     50     1   112.0500483 394.969600
     41     44     47     1   112.0500483 394.969600
     38     41     44     1   112.0500483 394.969600
     35     38     41     1   112.0500483 394.969600
     32     35     38     1   112.0500483 394.969600
     29     32     35     1   112.0500483 394.969600
     26     29     32     1   112.0500483 394.969600
     23     26     29     1   112.0500483 394.969600
     20     23     26     1   112.0500483 394.969600
     17     20     23     1   112.0500483 394.969600
     14     17     20     1   112.0500483 394.969600
     11     14     17     1   112.0500483 394.969600
      8     11     14     1   112.0500483 394.969600
      5      8     11     1   112.0500483 394.969600
      1      5      8     1   112.0500483 394.969600
     81     80     84     1   123.1100526 569.275040
     80     84     87     1   110.5300474 533.794720
     79     80     81     1   123.3300529 635.382240
     79     80     84     1   111.9600481 579.567680
     77     65     78     1   119.9000514 1171.520000
     72     70     74     1   109.4300470 566.680960
     70     74     82     1   109.4300470 566.680960
     67     70     72     1   109.4300470 566.680960
     67     70     74     1   110.6300475 528.941280
     66     65     77     1   108.2300464 836.800000
     66     65     78     1   108.2300464 836.800000
     66     67     70     1   108.4200467 567.183040
     65     66     67     1   120.5000516 836.800000
     64     65     66     1   102.6000440 753.120000
     64     65     77     1   108.2300464 836.800000
     64     65     78     1   108.2300464 836.800000
     61     59     79     1   108.4200467 567.183040
     61     64     65     1   120.5000516 836.800000
     59     61     64     1   108.4200467 567.183040
     59     79     80     1   115.1400492 532.455840
     56     59     61     1   110.6300475 528.941280
     56     59     79     1   108.4200467 567.183040
     55     56     59     1   108.4200467 567.183040
     54     53     55     1   123.3300529 635.382240
     53     55     56     1   115.1400492 532.455840
    124    127    130     1   112.0500483 394.969600
    121    124    127     1   112.0500483 394.969600
    118    121    124     1   112.0500483 394.969600
    115    118    121     1   112.0500483 394.969600
    112    115    118     1   112.0500483 394.969600
    109    112    115     1   112.0500483 394.969600
    107    109    112     1   111.4400476 531.619040
    105    107    109     1   123.4200531 538.313440
    102    105    107     1   123.4200531 538.313440
     99    102    105     1   111.4400476 531.619040
     96     99    102     1   112.0500483 394.969600
     93     96     99     1   112.0500483 394.969600
     90     93     96     1   112.0500483 394.969600
     87     90     93     1   112.0500483 394.969600
     84     87     90     1   112.0500483 394.969600
     52     50     53     1   109.6800468 394.969600
     51     50     52     1   108.3500467 329.950240
     51     50     53     1   109.6800468 394.969600
     49     47     50     1   110.0500475 388.024160
     48     47     50     1   110.0500475 388.024160
     48     47     49     1   108.3500467 329.950240
     47     50     51     1   110.0500475 388.024160
     47     50     52     1   110.0500475 388.024160
     46     44     47     1   110.0500475 388.024160
     45     44     47     1   110.0500475 388.024160
     45     44     46     1   108.3500467 329.950240
     44     47     49     1   110.0500475 388.024160
     44     47     48     1   110.0500475 388.024160
     43     41     44     1   110.0500475 388.024160
     42     41     44     1   110.0500475 388.024160
     42     41     43     1   108.3500467 329.950240
     41     44     45     1   110.0500475 388.024160
     41     44     46     1   110.0500475 388.024160
     40     38     41     1   110.0500475 388.024160
     39     38     41     1   110.0500475 388.024160
     39     38     40     1   108.3500467 329.950240
     38     41     43     1   110.0500475 388.024160
     38     41     42     1   110.0500475 388.024160
     37     35     38     1   110.0500475 388.024160
     36     35     38     1   110.0500475 388.024160
     36     35     37     1   108.3500467 329.950240
     35     38     39     1   110.0500475 388.024160
     35     38     40     1   110.0500475 388.024160
     34     32     35     1   110.0500475 388.024160
     33     32     35     1   110.0500475 388.024160
     33     32     34     1   108.3500467 329.950240
     32     35     37     1   110.0500475 388.024160
     32     35     36     1   110.0500475 388.024160
     31     29     32     1   110.0500475 388.024160
     30     29     32     1   110.0500475 388.024160
     30     29     31     1   108.3500467 329.950240
     29     32     33     1   110.0500475 388.024160
     29     32     34     1   110.0500475 388.024160
     28     26     29     1   110.0500475 388.024160
     27     26     29     1   110.0500475 388.024160
     27     26     28     1   108.3500467 329.950240
     26     29     31     1   110.0500475 388.024160
     26     29     30     1   110.0500475 388.024160
     25     23     26     1   110.0500475 388.024160
     24     23     26     1   110.0500475 388.024160
     24     23     25     1   108.3500467 329.950240
     23     26     27     1   110.0500475 388.024160
     23     26     28     1   110.0500475 388.024160
     22     20     23     1   110.0500475 388.024160
     21     20     23     1   110.0500475 388.024160
     21     20     22     1   108.3500467 329.950240
     20     23     25     1   110.0500475 388.024160
     20     23     24     1   110.0500475 388.024160
     19     17     20     1   110.0500475 388.024160
     18     17     20     1   110.0500475 388.024160
     18     17     19     1   108.3500467 329.950240
     17     20     21     1   110.0500475 388.024160
     17     20     22     1   110.0500475 388.024160
     16     14     17     1   110.0500475 388.024160
     15     14     17     1   110.0500475 388.024160
     15     14     16     1   108.3500467 329.950240
     14     17     19     1   110.0500475 388.024160
     14     17     18     1   110.0500475 388.024160
     13     11     14     1   110.0500475 388.024160
     12     11     14     1   110.0500475 388.024160
     12     11     13     1   108.3500467 329.950240
     11     14     15     1   110.0500475 388.024160
     11     14     16     1   110.0500475 388.024160
     10      8     11     1   110.0500475 388.024160
      9      8     11     1   110.0500475 388.024160
      9      8     10     1   108.3500467 329.950240
      8     11     13     1   110.0500475 388.024160
      8     11     12     1   110.0500475 388.024160
      7      5      8     1   110.0500475 388.024160
      6      5      8     1   110.0500475 388.024160
      6      5      7     1   108.3500467 329.950240
      5      8      9     1   110.0500475 388.024160
      5      8     10     1   110.0500475 388.024160
      4      1      5     1   110.0500475 388.024160
      3      1      5     1   110.0500475 388.024160
      3      1      4     1   108.3500467 329.950240
      2      1      5     1   110.0500475 388.024160
      2      1      4     1   108.3500467 329.950240
      2      1      3     1   108.3500467 329.950240
      1      5      7     1   110.0500475 388.024160
      1      5      6     1   110.0500475 388.024160
     80     84     85     1   109.6800468 394.969600
     80     84     86     1   109.6800468 394.969600
     76     74     82     1   109.8800469 426.516960
     75     74     76     1   109.5500472 327.858240
     75     74     82     1   109.8800469 426.516960
     74     82     83     1   108.1600465 394.049120
     71     70     72     1   109.8800469 426.516960
     71     70     74     1   110.0700471 387.940480
     70     72     73     1   108.1600465 394.049120
     70     74     75     1   110.0700471 387.940480
     70     74     76     1   110.0700471 387.940480
     69     67     70     1   110.0700471 387.940480
     68     67     69     1   109.5500472 327.858240
     68     67     70     1   110.0700471 387.940480
     67     70     71     1   110.0700471 387.940480
     66     67     68     1   108.8200469 425.429120
     66     67     69     1   108.8200469 425.429120
     63     61     64     1   108.8200469 425.429120
     62     61     63     1   109.5500472 327.858240
     62     61     64     1   108.8200469 425.429120
     60     59     61     1   110.0700471 387.940480
     60     59     79     1   108.8200469 425.429120
     59     61     62     1   110.0700471 387.940480
     59     61     63     1   110.0700471 387.940480
     58     56     59     1   110.0700471 387.940480
     57     56     58     1   109.5500472 327.858240
     57     56     59     1   110.0700471 387.940480
     56     59     60     1   110.0700471 387.940480
     55     56     57     1   108.8200469 425.429120
     55     56     58     1   108.8200469 425.429120
    132    130    133     1   108.3500467 329.950240
    131    130    132     1   108.3500467 329.950240
    131    130    133     1   108.3500467 329.950240
    129    127    130     1   110.0500475 388.024160
    128    127    129     1   108.3500467 329.950240
    128    127    130     1   110.0500475 388.024160
    127    130    131     1   110.0500475 388.024160
    127    130    132     1   110.0500475 388.024160
    127    130    133     1   110.0500475 388.024160
    126    124    127     1   110.0500475 388.024160
    125    124    126     1   108.3500467 329.950240
    125    124    127     1   110.0500475 388.024160
    124    127    128     1   110.0500475 388.024160
    124    127    129     1   110.0500475 388.024160
    123    121    124     1   110.0500475 388.024160
    122    121    123     1   108.3500467 329.950240
    122    121    124     1   110.0500475 388.024160
    121    124    125     1   110.0500475 388.024160
    121    124    126     1   110.0500475 388.024160
    120    118    121     1   110.0500475 388.024160
    119    118    120     1   108.3500467 329.950240
    119    118    121     1   110.0500475 388.024160
    118    121    122     1   110.0500475 388.024160
    118    121    123     1   110.0500475 388.024160
    117    115    118     1   110.0500475 388.024160
    116    115    117     1   108.3500467 329.950240
    116    115    118     1   110.0500475 388.024160
    115    118    119     1   110.0500475 388.024160
    115    118    120     1   110.0500475 388.024160
    114    112    115     1   110.0500475 388.024160
    113    112    114     1   108.3500467 329.950240
    113    112    115     1   110.0500475 388.024160
    112    115    116     1   110.0500475 388.024160
    112    115    117     1   110.0500475 388.024160
    111    109    112     1   110.0500475 388.024160
    110    109    111     1   108.3500467 329.950240
    110    109    112     1   110.0500475 388.024160
    109    112    113     1   110.0500475 388.024160
    109    112    114     1   110.0500475 388.024160
    108    107    109     1   117.3000503 382.082880
    107    109    110     1   110.4900475 393.547040
    107    109    111     1   110.4900475 393.547040
    106    105    107     1   120.9400517 418.734720
    105    107    108     1   120.9400517 418.734720
    104    102    105     1   110.4900475 393.547040
    103    102    104     1   108.3500467 329.950240
    103    102    105     1   110.4900475 393.547040
    102    105    106     1   117.3000503 382.082880
    101     99    102     1   110.0500475 388.024160
    100     99    101     1   108.3500467 329.950240
    100     99    102     1   110.0500475 388.024160
     99    102    103     1   110.0500475 388.024160
     99    102    104     1   110.0500475 388.024160
     98     96     99     1   110.0500475 388.024160
     97     96     98     1   108.3500467 329.950240
     97     96     99     1   110.0500475 388.024160
     96     99    100     1   110.0500475 388.024160
     96     99    101     1   110.0500475 388.024160
     95     93     96     1   110.0500475 388.024160
     94     93     95     1   108.3500467 329.950240
     94     93     96     1   110.0500475 388.024160
     93     96     97     1   110.0500475 388.024160
     93     96     98     1   110.0500475 388.024160
     92     90     93     1   110.0500475 388.024160
     91     90     92     1   108.3500467 329.950240
     91     90     93     1   110.0500475 388.024160
     90     93     94     1   110.0500475 388.024160
     90     93     95     1   110.0500475 388.024160
     89     87     90     1   110.0500475 388.024160
     88     87     89     1   108.3500467 329.950240
     88     87     90     1   110.0500475 388.024160
     87     90     91     1   110.0500475 388.024160
     87     90     92     1   110.0500475 388.024160
     86     84     87     1   110.0500475 388.024160
     85     84     86     1   108.3500467 329.950240
     85     84     87     1   110.0500475 388.024160
     84     87     88     1   110.0500475 388.024160
     84     87     89     1   110.0500475 388.024160


[ dihedrals ]
;    ai     aj     ak     al funct         c0         c1         c2         c3         c4         c5
     50     53     55     56     1  180.0000771  11.2968000  2
     47     50     53     54     1  180.0000771  0.0000000  2
     47     50     53     55     1  180.0000771  0.0000000  2
     44     47     50     53     1  0.0000000  0.6527040  3
     41     44     47     50     1  0.0000000  0.4184000  1
     41     44     47     50     1  0.0000000  0.4184000  2
     41     44     47     50     1  0.0000000  1.2552000  3
     41     44     47     50     1  0.0000000  0.4184000  4
     41     44     47     50     1  0.0000000  0.4184000  5
     38     41     44     47     1  0.0000000  0.4184000  1
     38     41     44     47     1  0.0000000  0.4184000  2
     38     41     44     47     1  0.0000000  1.2552000  3
     38     41     44     47     1  0.0000000  0.4184000  4
     38     41     44     47     1  0.0000000  0.4184000  5
     35     38     41     44     1  0.0000000  0.4184000  1
     35     38     41     44     1  0.0000000  0.4184000  2
     35     38     41     44     1  0.0000000  1.2552000  3
     35     38     41     44     1  0.0000000  0.4184000  4
     35     38     41     44     1  0.0000000  0.4184000  5
     32     35     38     41     1  0.0000000  0.4184000  1
     32     35     38     41     1  0.0000000  0.4184000  2
     32     35     38     41     1  0.0000000  1.2552000  3
     32     35     38     41     1  0.0000000  0.4184000  4
     32     35     38     41     1  0.0000000  0.4184000  5
     29     32     35     38     1  0.0000000  0.4184000  1
     29     32     35     38     1  0.0000000  0.4184000  2
     29     32     35     38     1  0.0000000  1.2552000  3
     29     32     35     38     1  0.0000000  0.4184000  4
     29     32     35     38     1  0.0000000  0.4184000  5
     26     29     32     35     1  0.0000000  0.4184000  1
     26     29     32     35     1  0.0000000  0.4184000  2
     26     29     32     35     1  0.0000000  1.2552000  3
     26     29     32     35     1  0.0000000  0.4184000  4
     26     29     32     35     1  0.0000000  0.4184000  5
     23     26     29     32     1  0.0000000  0.4184000  1
     23     26     29     32     1  0.0000000  0.4184000  2
     23     26     29     32     1  0.0000000  1.2552000  3
     23     26     29     32     1  0.0000000  0.4184000  4
     23     26     29     32     1  0.0000000  0.4184000  5
     20     23     26     29     1  0.0000000  0.4184000  1
     20     23     26     29     1  0.0000000  0.4184000  2
     20     23     26     29     1  0.0000000  1.2552000  3
     20     23     26     29     1  0.0000000  0.4184000  4
     20     23     26     29     1  0.0000000  0.4184000  5
     17     20     23     26     1  0.0000000  0.4184000  1
     17     20     23     26     1  0.0000000  0.4184000  2
     17     20     23     26     1  0.0000000  1.2552000  3
     17     20     23     26     1  0.0000000  0.4184000  4
     17     20     23     26     1  0.0000000  0.4184000  5
     14     17     20     23     1  0.0000000  0.4184000  1
     14     17     20     23     1  0.0000000  0.4184000  2
     14     17     20     23     1  0.0000000  1.2552000  3
     14     17     20     23     1  0.0000000  0.4184000  4
     14     17     20     23     1  0.0000000  0.4184000  5
     11     14     17     20     1  0.0000000  0.4184000  1
     11     14     17     20     1  0.0000000  0.4184000  2
     11     14     17     20     1  0.0000000  1.2552000  3
     11     14     17     20     1  0.0000000  0.4184000  4
     11     14     17     20     1  0.0000000  0.4184000  5
      8     11     14     17     1  0.0000000  0.4184000  1
      8     11     14     17     1  0.0000000  0.4184000  2
      8     11     14     17     1  0.0000000  1.2552000  3
      8     11     14     17     1  0.0000000  0.4184000  4
      8     11     14     17     1  0.0000000  0.4184000  5
      5      8     11     14     1  0.0000000  0.4184000  1
      5      8     11     14     1  0.0000000  0.4184000  2
      5      8     11     14     1  0.0000000  1.2552000  3
      5      8     11     14     1  0.0000000  0.4184000  4
      5      8     11     14     1  0.0000000  0.4184000  5
      1      5      8     11     1  0.0000000  0.4184000  1
      1      5      8     11     1  0.0000000  0.4184000  2
      1      5      8     11     1  0.0000000  1.2552000  3
      1      5      8     11     1  0.0000000  0.4184000  4
      1      5      8     11     1  0.0000000  0.4184000  5
     81     80     84     87     1  180.0000771  0.0000000  2
     80     84     87     90     1  0.0000000  0.6527040  3
     79     80     84     87     1  180.0000771  0.0000000  2
     72     70     74     82     1  0.0000000  4.9162000  2
     72     70     74     82     1  0.0000000  0.6024960  3
     67     66     65     77     1  0.0000000  0.0000000  1
     67     66     65     77     1  0.0000000  0.8368000  2
     67     66     65     77     1  0.0000000  0.0000000  3
     67     66     65     77     1  0.0000000  0.0000000  4
     67     66     65     77     1  0.0000000  0.0000000  5
     67     66     65     78     1  0.0000000  0.0000000  1
     67     66     65     78     1  0.0000000  0.8368000  2
     67     66     65     78     1  0.0000000  0.0000000  3
     67     66     65     78     1  0.0000000  0.0000000  4
     67     66     65     78     1  0.0000000  0.0000000  5
     67     70     74     82     1  0.0000000  0.6510304  3
     66     67     70     72     1  0.0000000  4.9162000  2
     66     67     70     72     1  0.0000000  0.6024960  3
     66     67     70     74     1  180.0000771  3.3472000  1
     66     67     70     74     1  120.0000514  0.8368000  2
     66     67     70     74     1  60.0000257  1.6736000  3
     65     66     67     70     1  180.0000771  -3.3472000  2
     65     66     67     70     1  0.0000000  0.0000000  3
     64     61     59     79     1  0.0000000  0.0000000  1
     64     61     59     79     1  0.0000000  0.0000000  2
     64     61     59     79     1  0.0000000  0.0000000  3
     64     61     59     79     1  0.0000000  0.0000000  4
     64     61     59     79     1  0.0000000  0.0000000  5
     64     65     66     67     1  0.0000000  9.6232000  2
     64     65     66     67     1  0.0000000  2.5104000  3
     61     59     79     80     1  0.0000000  -0.4184000  1
     61     59     79     80     1  240.0001029  -1.2552000  2
     61     59     79     80     1  300.0001286  -0.8368000  3
     61     64     65     66     1  0.0000000  9.6232000  2
     61     64     65     66     1  0.0000000  2.5104000  3
     61     64     65     77     1  0.0000000  0.0000000  1
     61     64     65     77     1  0.0000000  0.8368000  2
     61     64     65     77     1  0.0000000  0.0000000  3
     61     64     65     77     1  0.0000000  0.0000000  4
     61     64     65     77     1  0.0000000  0.0000000  5
     61     64     65     78     1  0.0000000  0.0000000  1
     61     64     65     78     1  0.0000000  0.8368000  2
     61     64     65     78     1  0.0000000  0.0000000  3
     61     64     65     78     1  0.0000000  0.0000000  4
     61     64     65     78     1  0.0000000  0.0000000  5
     59     61     64     65     1  180.0000771  -3.3472000  2
     59     61     64     65     1  0.0000000  0.0000000  3
     59     79     80     81     1  180.0000771  5.8576000  1
     59     79     80     81     1  180.0000771  11.2968000  2
     59     79     80     84     1  180.0000771  11.2968000  2
     56     59     61     64     1  180.0000771  3.3472000  1
     56     59     61     64     1  120.0000514  0.8368000  2
     56     59     61     64     1  60.0000257  1.6736000  3
     56     59     79     80     1  0.0000000  -0.4184000  1
     56     59     79     80     1  240.0001029  -1.2552000  2
     56     59     79     80     1  300.0001286  -0.8368000  3
     55     56     59     61     1  0.0000000  0.0000000  1
     55     56     59     61     1  0.0000000  0.0000000  2
     55     56     59     61     1  0.0000000  0.0000000  3
     55     56     59     61     1  0.0000000  0.0000000  4
     55     56     59     61     1  0.0000000  0.0000000  5
     55     56     59     79     1  180.0000771  -0.4184000  1
     55     56     59     79     1  0.0000000  1.2552000  2
     55     56     59     79     1  0.0000000  4.1840000  3
     54     53     55     56     1  180.0000771  5.8576000  1
     54     53     55     56     1  180.0000771  11.2968000  2
     53     55     56     59     1  0.0000000  -0.4184000  1
     53     55     56     59     1  240.0001029  -1.2552000  2
     53     55     56     59     1  300.0001286  -0.8368000  3
    121    124    127    130     1  0.0000000  0.4184000  1
    121    124    127    130     1  0.0000000  0.4184000  2
    121    124    127    130     1  0.0000000  1.2552000  3
    121    124    127    130     1  0.0000000  0.4184000  4
    121    124    127    130     1  0.0000000  0.4184000  5
    118    121    124    127     1  0.0000000  0.4184000  1
    118    121    124    127     1  0.0000000  0.4184000  2
    118    121    124    127     1  0.0000000  1.2552000  3
    118    121    124    127     1  0.0000000  0.4184000  4
    118    121    124    127     1  0.0000000  0.4184000  5
    115    118    121    124     1  0.0000000  0.4184000  1
    115    118    121    124     1  0.0000000  0.4184000  2
    115    118    121    124     1  0.0000000  1.2552000  3
    115    118    121    124     1  0.0000000  0.4184000  4
    115    118    121    124     1  0.0000000  0.4184000  5
    112    115    118    121     1  0.0000000  0.4184000  1
    112    115    118    121     1  0.0000000  0.4184000  2
    112    115    118    121     1  0.0000000  1.2552000  3
    112    115    118    121     1  0.0000000  0.4184000  4
    112    115    118    121     1  0.0000000  0.4184000  5
    109    112    115    118     1  0.0000000  0.4184000  1
    109    112    115    118     1  0.0000000  0.4184000  2
    109    112    115    118     1  0.0000000  1.2552000  3
    109    112    115    118     1  0.0000000  0.4184000  4
    109    112    115    118     1  0.0000000  0.4184000  5
    107    109    112    115     1  0.0000000  0.0000000  1
    107    109    112    115     1  0.0000000  0.0000000  2
    107    109    112    115     1  0.0000000  2.0920000  3
    107    109    112    115     1  0.0000000  0.0000000  4
    107    109    112    115     1  0.0000000  0.4184000  5
    105    107    109    112     1  0.0000000  2.5104000  1
    105    107    109    112     1  180.0000771  1.6736000  2
    105    107    109    112     1  180.0000771  1.6736000  3
    105    107    109    112     1  180.0000771  0.8368000  4
    105    107    109    112     1  180.0000771  0.8368000  5
    102    105    107    109     1  180.0000771  7.1128000  1
    102    105    107    109     1  180.0000771  13.8072000  2
    102    105    107    109     1  0.0000000  2.5104000  3
    102    105    107    109     1  0.0000000  0.0000000  4
    102    105    107    109     1  0.0000000  0.0000000  5
     99    102    105    107     1  0.0000000  2.5104000  1
     99    102    105    107     1  180.0000771  1.6736000  2
     99    102    105    107     1  180.0000771  1.6736000  3
     99    102    105    107     1  180.0000771  0.8368000  4
     99    102    105    107     1  180.0000771  0.8368000  5
     96     99    102    105     1  0.0000000  0.0000000  1
     96     99    102    105     1  0.0000000  0.0000000  2
     96     99    102    105     1  0.0000000  2.0920000  3
     96     99    102    105     1  0.0000000  0.0000000  4
     96     99    102    105     1  0.0000000  0.4184000  5
     93     96     99    102     1  0.0000000  0.4184000  1
     93     96     99    102     1  0.0000000  0.4184000  2
     93     96     99    102     1  0.0000000  1.2552000  3
     93     96     99    102     1  0.0000000  0.4184000  4
     93     96     99    102     1  0.0000000  0.4184000  5
     90     93     96     99     1  0.0000000  0.4184000  1
     90     93     96     99     1  0.0000000  0.4184000  2
     90     93     96     99     1  0.0000000  1.2552000  3
     90     93     96     99     1  0.0000000  0.4184000  4
     90     93     96     99     1  0.0000000  0.4184000  5
     87     90     93     96     1  0.0000000  0.4184000  1
     87     90     93     96     1  0.0000000  0.4184000  2
     87     90     93     96     1  0.0000000  1.2552000  3
     87     90     93     96     1  0.0000000  0.4184000  4
     87     90     93     96     1  0.0000000  0.4184000  5
     84     87     90     93     1  0.0000000  0.4184000  1
     84     87     90     93     1  0.0000000  0.4184000  2
     84     87     90     93     1  0.0000000  1.2552000  3
     84     87     90     93     1  0.0000000  0.4184000  4
     84     87     90     93     1  0.0000000  0.4184000  5
     84     81     80     79     4  180.0000771  43.9320000  2
     50     54     53     55     4  180.0000771  43.9320000  2
     52     50     53     54     1  0.0000000  3.3472000  1
     52     50     53     54     1  180.0000771  0.3347200  3
     52     50     53     55     1  180.0000771  0.0000000  2
     51     50     53     54     1  0.0000000  3.3472000  1
     51     50     53     54     1  180.0000771  0.3347200  3
     51     50     53     55     1  180.0000771  0.0000000  2
     49     47     50     51     1  0.0000000  0.6276000  3
     49     47     50     52     1  0.0000000  0.6276000  3
     49     47     50     53     1  0.0000000  0.6527040  3
     48     47     50     51     1  0.0000000  0.6276000  3
     48     47     50     52     1  0.0000000  0.6276000  3
     48     47     50     53     1  0.0000000  0.6527040  3
     46     44     47     50     1  0.0000000  0.6694400  3
     46     44     47     49     1  0.0000000  0.6276000  3
     46     44     47     48     1  0.0000000  0.6276000  3
     45     44     47     50     1  0.0000000  0.6694400  3
     45     44     47     49     1  0.0000000  0.6276000  3
     45     44     47     48     1  0.0000000  0.6276000  3
     44     47     50     51     1  0.0000000  0.6694400  3
     44     47     50     52     1  0.0000000  0.6694400  3
     43     41     44     47     1  0.0000000  0.6694400  3
     43     41     44     45     1  0.0000000  0.6276000  3
     43     41     44     46     1  0.0000000  0.6276000  3
     42     41     44     47     1  0.0000000  0.6694400  3
     42     41     44     45     1  0.0000000  0.6276000  3
     42     41     44     46     1  0.0000000  0.6276000  3
     41     44     47     49     1  0.0000000  0.6694400  3
     41     44     47     48     1  0.0000000  0.6694400  3
     40     38     41     44     1  0.0000000  0.6694400  3
     40     38     41     43     1  0.0000000  0.6276000  3
     40     38     41     42     1  0.0000000  0.6276000  3
     39     38     41     44     1  0.0000000  0.6694400  3
     39     38     41     43     1  0.0000000  0.6276000  3
     39     38     41     42     1  0.0000000  0.6276000  3
     38     41     44     45     1  0.0000000  0.6694400  3
     38     41     44     46     1  0.0000000  0.6694400  3
     37     35     38     41     1  0.0000000  0.6694400  3
     37     35     38     39     1  0.0000000  0.6276000  3
     37     35     38     40     1  0.0000000  0.6276000  3
     36     35     38     41     1  0.0000000  0.6694400  3
     36     35     38     39     1  0.0000000  0.6276000  3
     36     35     38     40     1  0.0000000  0.6276000  3
     35     38     41     43     1  0.0000000  0.6694400  3
     35     38     41     42     1  0.0000000  0.6694400  3
     34     32     35     38     1  0.0000000  0.6694400  3
     34     32     35     37     1  0.0000000  0.6276000  3
     34     32     35     36     1  0.0000000  0.6276000  3
     33     32     35     38     1  0.0000000  0.6694400  3
     33     32     35     37     1  0.0000000  0.6276000  3
     33     32     35     36     1  0.0000000  0.6276000  3
     32     35     38     39     1  0.0000000  0.6694400  3
     32     35     38     40     1  0.0000000  0.6694400  3
     31     29     32     35     1  0.0000000  0.6694400  3
     31     29     32     33     1  0.0000000  0.6276000  3
     31     29     32     34     1  0.0000000  0.6276000  3
     30     29     32     35     1  0.0000000  0.6694400  3
     30     29     32     33     1  0.0000000  0.6276000  3
     30     29     32     34     1  0.0000000  0.6276000  3
     29     32     35     37     1  0.0000000  0.6694400  3
     29     32     35     36     1  0.0000000  0.6694400  3
     28     26     29     32     1  0.0000000  0.6694400  3
     28     26     29     31     1  0.0000000  0.6276000  3
     28     26     29     30     1  0.0000000  0.6276000  3
     27     26     29     32     1  0.0000000  0.6694400  3
     27     26     29     31     1  0.0000000  0.6276000  3
     27     26     29     30     1  0.0000000  0.6276000  3
     26     29     32     33     1  0.0000000  0.6694400  3
     26     29     32     34     1  0.0000000  0.6694400  3
     25     23     26     29     1  0.0000000  0.6694400  3
     25     23     26     27     1  0.0000000  0.6276000  3
     25     23     26     28     1  0.0000000  0.6276000  3
     24     23     26     29     1  0.0000000  0.6694400  3
     24     23     26     27     1  0.0000000  0.6276000  3
     24     23     26     28     1  0.0000000  0.6276000  3
     23     26     29     31     1  0.0000000  0.6694400  3
     23     26     29     30     1  0.0000000  0.6694400  3
     22     20     23     26     1  0.0000000  0.6694400  3
     22     20     23     25     1  0.0000000  0.6276000  3
     22     20     23     24     1  0.0000000  0.6276000  3
     21     20     23     26     1  0.0000000  0.6694400  3
     21     20     23     25     1  0.0000000  0.6276000  3
     21     20     23     24     1  0.0000000  0.6276000  3
     20     23     26     27     1  0.0000000  0.6694400  3
     20     23     26     28     1  0.0000000  0.6694400  3
     19     17     20     23     1  0.0000000  0.6694400  3
     19     17     20     21     1  0.0000000  0.6276000  3
     19     17     20     22     1  0.0000000  0.6276000  3
     18     17     20     23     1  0.0000000  0.6694400  3
     18     17     20     21     1  0.0000000  0.6276000  3
     18     17     20     22     1  0.0000000  0.6276000  3
     17     20     23     25     1  0.0000000  0.6694400  3
     17     20     23     24     1  0.0000000  0.6694400  3
     16     14     17     20     1  0.0000000  0.6694400  3
     16     14     17     19     1  0.0000000  0.6276000  3
     16     14     17     18     1  0.0000000  0.6276000  3
     15     14     17     20     1  0.0000000  0.6694400  3
     15     14     17     19     1  0.0000000  0.6276000  3
     15     14     17     18     1  0.0000000  0.6276000  3
     14     17     20     21     1  0.0000000  0.6694400  3
     14     17     20     22     1  0.0000000  0.6694400  3
     13     11     14     17     1  0.0000000  0.6694400  3
     13     11     14     15     1  0.0000000  0.6276000  3
     13     11     14     16     1  0.0000000  0.6276000  3
     12     11     14     17     1  0.0000000  0.6694400  3
     12     11     14     15     1  0.0000000  0.6276000  3
     12     11     14     16     1  0.0000000  0.6276000  3
     11     14     17     19     1  0.0000000  0.6694400  3
     11     14     17     18     1  0.0000000  0.6694400  3
     10      8     11     14     1  0.0000000  0.6694400  3
     10      8     11     13     1  0.0000000  0.6276000  3
     10      8     11     12     1  0.0000000  0.6276000  3
      9      8     11     14     1  0.0000000  0.6694400  3
      9      8     11     13     1  0.0000000  0.6276000  3
      9      8     11     12     1  0.0000000  0.6276000  3
      8     11     14     15     1  0.0000000  0.6694400  3
      8     11     14     16     1  0.0000000  0.6694400  3
      7      5      8     11     1  0.0000000  0.6694400  3
      7      5      8      9     1  0.0000000  0.6276000  3
      7      5      8     10     1  0.0000000  0.6276000  3
      6      5      8     11     1  0.0000000  0.6694400  3
      6      5      8      9     1  0.0000000  0.6276000  3
      6      5      8     10     1  0.0000000  0.6276000  3
      5      8     11     13     1  0.0000000  0.6694400  3
      5      8     11     12     1  0.0000000  0.6694400  3
      4      1      5      8     1  0.0000000  0.6694400  3
      4      1      5      7     1  0.0000000  0.6276000  3
      4      1      5      6     1  0.0000000  0.6276000  3
      3      1      5      8     1  0.0000000  0.6694400  3
      3      1      5      7     1  0.0000000  0.6276000  3
      3      1      5      6     1  0.0000000  0.6276000  3
      2      1      5      8     1  0.0000000  0.6694400  3
      2      1      5      7     1  0.0000000  0.6276000  3
      2      1      5      6     1  0.0000000  0.6276000  3
      1      5      8      9     1  0.0000000  0.6694400  3
      1      5      8     10     1  0.0000000  0.6694400  3
     81     80     84     85     1  0.0000000  3.3472000  1
     81     80     84     85     1  180.0000771  0.3347200  3
     81     80     84     86     1  0.0000000  3.3472000  1
     81     80     84     86     1  180.0000771  0.3347200  3
     80     84     87     88     1  0.0000000  0.6527040  3
     80     84     87     89     1  0.0000000  0.6527040  3
     79     80     84     85     1  180.0000771  0.0000000  2
     79     80     84     86     1  180.0000771  0.0000000  2
     76     74     82     83     1  0.0000000  2.0920000  3
     75     74     82     83     1  0.0000000  2.0920000  3
     73     72     70     74     1  0.0000000  1.0460000  1
     73     72     70     74     1  0.0000000  0.6694400  3
     72     70     74     75     1  0.0000000  1.0460000  1
     72     70     74     75     1  0.0000000  0.0000000  3
     72     70     74     76     1  0.0000000  1.0460000  1
     72     70     74     76     1  0.0000000  0.0000000  3
     71     70     72     73     1  0.0000000  2.0920000  3
     71     70     74     75     1  0.0000000  0.6527040  3
     71     70     74     76     1  0.0000000  0.6527040  3
     71     70     74     82     1  0.0000000  1.0460000  1
     71     70     74     82     1  0.0000000  0.0000000  3
     70     74     82     83     1  0.0000000  1.0460000  1
     70     74     82     83     1  0.0000000  0.6694400  3
     69     67     70     71     1  0.0000000  0.6527040  3
     69     67     70     72     1  0.0000000  1.0460000  1
     69     67     70     72     1  0.0000000  0.0000000  3
     69     67     70     74     1  0.0000000  0.6527040  3
     68     67     70     71     1  0.0000000  0.6527040  3
     68     67     70     72     1  0.0000000  1.0460000  1
     68     67     70     72     1  0.0000000  0.0000000  3
     68     67     70     74     1  0.0000000  0.6527040  3
     67     70     72     73     1  0.0000000  1.0460000  1
     67     70     72     73     1  0.0000000  0.6694400  3
     67     70     74     75     1  0.0000000  0.6527040  3
     67     70     74     76     1  0.0000000  0.6527040  3
     66     67     70     71     1  0.0000000  1.0460000  1
     66     67     70     71     1  0.0000000  0.0000000  3
     65     66     67     68     1  0.0000000  0.0000000  1
     65     66     67     68     1  0.0000000  0.0000000  2
     65     66     67     68     1  0.0000000  1.6024720  3
     65     66     67     68     1  0.0000000  0.0000000  4
     65     66     67     68     1  0.0000000  0.0000000  5
     65     66     67     69     1  0.0000000  0.0000000  1
     65     66     67     69     1  0.0000000  0.0000000  2
     65     66     67     69     1  0.0000000  1.6024720  3
     65     66     67     69     1  0.0000000  0.0000000  4
     65     66     67     69     1  0.0000000  0.0000000  5
     63     61     59     79     1  0.0000000  1.0460000  1
     63     61     59     79     1  0.0000000  0.0000000  3
     63     61     64     65     1  0.0000000  0.0000000  1
     63     61     64     65     1  0.0000000  0.0000000  2
     63     61     64     65     1  0.0000000  1.6024720  3
     63     61     64     65     1  0.0000000  0.0000000  4
     63     61     64     65     1  0.0000000  0.0000000  5
     62     61     59     79     1  0.0000000  1.0460000  1
     62     61     59     79     1  0.0000000  0.0000000  3
     62     61     64     65     1  0.0000000  0.0000000  1
     62     61     64     65     1  0.0000000  0.0000000  2
     62     61     64     65     1  0.0000000  1.6024720  3
     62     61     64     65     1  0.0000000  0.0000000  4
     62     61     64     65     1  0.0000000  0.0000000  5
     60     59     61     62     1  0.0000000  0.6527040  3
     60     59     61     63     1  0.0000000  0.6527040  3
     60     59     61     64     1  0.0000000  1.0460000  1
     60     59     61     64     1  0.0000000  0.0000000  3
     60     59     79     80     1  0.0000000  1.6024720  3
     58     56     59     60     1  0.0000000  0.6527040  3
     58     56     59     61     1  0.0000000  0.6527040  3
     58     56     59     79     1  0.0000000  1.0460000  1
     58     56     59     79     1  0.0000000  0.0000000  3
     57     56     59     60     1  0.0000000  0.6527040  3
     57     56     59     61     1  0.0000000  0.6527040  3
     57     56     59     79     1  0.0000000  1.0460000  1
     57     56     59     79     1  0.0000000  0.0000000  3
     56     59     61     62     1  0.0000000  0.6527040  3
     56     59     61     63     1  0.0000000  0.6527040  3
     55     56     59     60     1  0.0000000  1.0460000  1
     55     56     59     60     1  0.0000000  0.0000000  3
     53     55     56     57     1  0.0000000  1.6024720  3
     53     55     56     58     1  0.0000000  1.6024720  3
    129    127    130    131     1  0.0000000  0.6276000  3
    129    127    130    132     1  0.0000000  0.6276000  3
    129    127    130    133     1  0.0000000  0.6276000  3
    128    127    130    131     1  0.0000000  0.6276000  3
    128    127    130    132     1  0.0000000  0.6276000  3
    128    127    130    133     1  0.0000000  0.6276000  3
    126    124    127    128     1  0.0000000  0.6276000  3
    126    124    127    129     1  0.0000000  0.6276000  3
    126    124    127    130     1  0.0000000  0.6694400  3
    125    124    127    128     1  0.0000000  0.6276000  3
    125    124    127    129     1  0.0000000  0.6276000  3
    125    124    127    130     1  0.0000000  0.6694400  3
    124    127    130    131     1  0.0000000  0.6694400  3
    124    127    130    132     1  0.0000000  0.6694400  3
    124    127    130    133     1  0.0000000  0.6694400  3
    123    121    124    125     1  0.0000000  0.6276000  3
    123    121    124    126     1  0.0000000  0.6276000  3
    123    121    124    127     1  0.0000000  0.6694400  3
    122    121    124    125     1  0.0000000  0.6276000  3
    122    121    124    126     1  0.0000000  0.6276000  3
    122    121    124    127     1  0.0000000  0.6694400  3
    121    124    127    128     1  0.0000000  0.6694400  3
    121    124    127    129     1  0.0000000  0.6694400  3
    120    118    121    122     1  0.0000000  0.6276000  3
    120    118    121    123     1  0.0000000  0.6276000  3
    120    118    121    124     1  0.0000000  0.6694400  3
    119    118    121    122     1  0.0000000  0.6276000  3
    119    118    121    123     1  0.0000000  0.6276000  3
    119    118    121    124     1  0.0000000  0.6694400  3
    118    121    124    125     1  0.0000000  0.6694400  3
    118    121    124    126     1  0.0000000  0.6694400  3
    117    115    118    119     1  0.0000000  0.6276000  3
    117    115    118    120     1  0.0000000  0.6276000  3
    117    115    118    121     1  0.0000000  0.6694400  3
    116    115    118    119     1  0.0000000  0.6276000  3
    116    115    118    120     1  0.0000000  0.6276000  3
    116    115    118    121     1  0.0000000  0.6694400  3
    115    118    121    122     1  0.0000000  0.6694400  3
    115    118    121    123     1  0.0000000  0.6694400  3
    114    112    115    116     1  0.0000000  0.6276000  3
    114    112    115    117     1  0.0000000  0.6276000  3
    114    112    115    118     1  0.0000000  0.6694400  3
    113    112    115    116     1  0.0000000  0.6276000  3
    113    112    115    117     1  0.0000000  0.6276000  3
    113    112    115    118     1  0.0000000  0.6694400  3
    112    115    118    119     1  0.0000000  0.6694400  3
    112    115    118    120     1  0.0000000  0.6694400  3
    111    109    112    113     1  0.0000000  0.6276000  3
    111    109    112    114     1  0.0000000  0.6276000  3
    111    109    112    115     1  0.0000000  0.6694400  3
    110    109    112    113     1  0.0000000  0.6276000  3
    110    109    112    114     1  0.0000000  0.6276000  3
    110    109    112    115     1  0.0000000  0.6694400  3
    109    112    115    116     1  0.0000000  0.6694400  3
    109    112    115    117     1  0.0000000  0.6694400  3
    108    107    109    110     1  0.0000000  0.0000000  2
    108    107    109    111     1  0.0000000  0.0000000  2
    108    107    109    112     1  0.0000000  0.0000000  2
    107    109    112    113     1  0.0000000  0.6510304  3
    107    109    112    114     1  0.0000000  0.6510304  3
    106    105    107    108     1  180.0000771  27.8236000  2
    106    105    107    109     1  180.0000771  27.8236000  2
    105    107    109    110     1  0.0000000  4.8116000  1
    105    107    109    110     1  180.0000771  1.5899200  3
    105    107    109    111     1  0.0000000  4.8116000  1
    105    107    109    111     1  180.0000771  1.5899200  3
    104    102    105    106     1  0.0000000  0.0000000  2
    104    102    105    107     1  0.0000000  4.8116000  1
    104    102    105    107     1  180.0000771  1.5899200  3
    103    102    105    106     1  0.0000000  0.0000000  2
    103    102    105    107     1  0.0000000  4.8116000  1
    103    102    105    107     1  180.0000771  1.5899200  3
    102    105    107    108     1  180.0000771  27.8236000  2
    101     99    102    103     1  0.0000000  0.6276000  3
    101     99    102    104     1  0.0000000  0.6276000  3
    101     99    102    105     1  0.0000000  0.6510304  3
    100     99    102    103     1  0.0000000  0.6276000  3
    100     99    102    104     1  0.0000000  0.6276000  3
    100     99    102    105     1  0.0000000  0.6510304  3
     99    102    105    106     1  0.0000000  0.0000000  2
     98     96     99    100     1  0.0000000  0.6276000  3
     98     96     99    101     1  0.0000000  0.6276000  3
     98     96     99    102     1  0.0000000  0.6694400  3
     97     96     99    100     1  0.0000000  0.6276000  3
     97     96     99    101     1  0.0000000  0.6276000  3
     97     96     99    102     1  0.0000000  0.6694400  3
     96     99    102    103     1  0.0000000  0.6694400  3
     96     99    102    104     1  0.0000000  0.6694400  3
     95     93     96     97     1  0.0000000  0.6276000  3
     95     93     96     98     1  0.0000000  0.6276000  3
     95     93     96     99     1  0.0000000  0.6694400  3
     94     93     96     97     1  0.0000000  0.6276000  3
     94     93     96     98     1  0.0000000  0.6276000  3
     94     93     96     99     1  0.0000000  0.6694400  3
     93     96     99    100     1  0.0000000  0.6694400  3
     93     96     99    101     1  0.0000000  0.6694400  3
     92     90     93     94     1  0.0000000  0.6276000  3
     92     90     93     95     1  0.0000000  0.6276000  3
     92     90     93     96     1  0.0000000  0.6694400  3
     91     90     93     94     1  0.0000000  0.6276000  3
     91     90     93     95     1  0.0000000  0.6276000  3
     91     90     93     96     1  0.0000000  0.6694400  3
     90     93     96     97     1  0.0000000  0.6694400  3
     90     93     96     98     1  0.0000000  0.6694400  3
     89     87     90     91     1  0.0000000  0.6276000  3
     89     87     90     92     1  0.0000000  0.6276000  3
     89     87     90     93     1  0.0000000  0.6694400  3
     88     87     90     91     1  0.0000000  0.6276000  3
     88     87     90     92     1  0.0000000  0.6276000  3
     88     87     90     93     1  0.0000000  0.6694400  3
     87     90     93     94     1  0.0000000  0.6694400  3
     87     90     93     95     1  0.0000000  0.6694400  3
     86     84     87     88     1  0.0000000  0.6276000  3
     86     84     87     89     1  0.0000000  0.6276000  3
     86     84     87     90     1  0.0000000  0.6694400  3
     85     84     87     88     1  0.0000000  0.6276000  3
     85     84     87     89     1  0.0000000  0.6276000  3
     85     84     87     90     1  0.0000000  0.6694400  3
     84     87     90     91     1  0.0000000  0.6694400  3
     84     87     90     92     1  0.0000000  0.6694400  3
    105    109    107    108     4  180.0000771  4.6024000  2
    107    102    105    106     4  180.0000771  4.6024000  2
