; Exact Amber Lipid21 v1.0 topology converted by ParmEd
; Explicit [pairs] preserve Lipid21-specific 1-4 scaling.

[ moleculetype ]
; Name nrexcl
SSM 3

[ atoms ]
; nr type resnr residue atom cgnr charge mass
1 L21_cD 1 SSM C18F 1 -0.12006900 12.010000
2 L21_hL 1 SSM H18F 2 0.02793800 1.008000
3 L21_hL 1 SSM H18G 3 0.02793800 1.008000
4 L21_hL 1 SSM H18H 4 0.02793800 1.008000
5 L21_cD 1 SSM C17F 5 0.02066500 12.010000
6 L21_hL 1 SSM H17F 6 0.00848300 1.008000
7 L21_hL 1 SSM H17G 7 0.00848300 1.008000
8 L21_cD 1 SSM C16F 8 -0.02765400 12.010000
9 L21_hL 1 SSM H16F 9 0.01562700 1.008000
10 L21_hL 1 SSM H16G 10 0.01562700 1.008000
11 L21_cD 1 SSM C15F 11 -0.03244400 12.010000
12 L21_hL 1 SSM H15F 12 0.01025300 1.008000
13 L21_hL 1 SSM H15G 13 0.01025300 1.008000
14 L21_cD 1 SSM C14F 14 -0.01348900 12.010000
15 L21_hL 1 SSM H14F 15 0.01007300 1.008000
16 L21_hL 1 SSM H14G 16 0.01007300 1.008000
17 L21_cD 1 SSM C13F 17 -0.01159000 12.010000
18 L21_hL 1 SSM H13F 18 0.00602200 1.008000
19 L21_hL 1 SSM H13G 19 0.00602200 1.008000
20 L21_cD 1 SSM C12F 20 -0.01915300 12.010000
21 L21_hL 1 SSM H12F 21 0.00819800 1.008000
22 L21_hL 1 SSM H12G 22 0.00819800 1.008000
23 L21_cD 1 SSM C11F 23 -0.01709300 12.010000
24 L21_hL 1 SSM H11F 24 0.01020600 1.008000
25 L21_hL 1 SSM H11G 25 0.01020600 1.008000
26 L21_cD 1 SSM C10F 26 -0.02641800 12.010000
27 L21_hL 1 SSM H10F 27 0.01082500 1.008000
28 L21_hL 1 SSM H10G 28 0.01082500 1.008000
29 L21_cD 1 SSM C9F 29 -0.01799700 12.010000
30 L21_hL 1 SSM H9F 30 0.00959500 1.008000
31 L21_hL 1 SSM H9G 31 0.00959500 1.008000
32 L21_cD 1 SSM C8F 32 -0.01462300 12.010000
33 L21_hL 1 SSM H8F 33 0.00732600 1.008000
34 L21_hL 1 SSM H8G 34 0.00732600 1.008000
35 L21_cD 1 SSM C7F 35 -0.01946900 12.010000
36 L21_hL 1 SSM H7F 36 0.00929200 1.008000
37 L21_hL 1 SSM H7G 37 0.00929200 1.008000
38 L21_cD 1 SSM C6F 38 -0.03762700 12.010000
39 L21_hL 1 SSM H6F 39 0.01774000 1.008000
40 L21_hL 1 SSM H6G 40 0.01774000 1.008000
41 L21_cD 1 SSM C5F 41 -0.01344300 12.010000
42 L21_hL 1 SSM H5F 42 0.00819100 1.008000
43 L21_hL 1 SSM H5G 43 0.00819100 1.008000
44 L21_cD 1 SSM C4F 44 -0.05979200 12.010000
45 L21_hL 1 SSM H4F 45 0.02424100 1.008000
46 L21_hL 1 SSM H4G 46 0.02424100 1.008000
47 L21_cD 1 SSM C3F 47 -0.00012800 12.010000
48 L21_hL 1 SSM H3F 48 0.01388600 1.008000
49 L21_hL 1 SSM H3G 49 0.01388600 1.008000
50 L21_cD 1 SSM C2F 50 -0.11702000 12.010000
51 L21_hL 1 SSM H2F 51 0.05180700 1.008000
52 L21_hL 1 SSM H2G 52 0.05180700 1.008000
53 L21_cA 1 SSM C2 53 0.01273900 12.010000
54 L21_hE 1 SSM HX 54 0.08745500 1.008000
55 L21_cA 1 SSM C3 55 0.17662500 12.010000
56 L21_hE 1 SSM HA 56 0.05162200 1.008000
57 L21_hE 1 SSM HB 57 0.05162200 1.008000
58 L21_oT 1 SSM O31 58 -0.53335600 16.000000
59 L21_pA 1 SSM P31 59 1.32476200 30.970000
60 L21_oT 1 SSM O32 60 -0.45930800 16.000000
61 L21_cA 1 SSM C31 61 0.28244700 12.010000
62 L21_hE 1 SSM H1A 62 0.04988600 1.008000
63 L21_hE 1 SSM H1B 63 0.04988600 1.008000
64 L21_cA 1 SSM C32 64 -0.49366500 12.010000
65 L21_hX 1 SSM H2A 65 0.23384000 1.008000
66 L21_hX 1 SSM H2B 66 0.23384000 1.008000
67 L21_nA 1 SSM N31 67 0.24527500 14.010000
68 L21_cA 1 SSM C33 68 -0.38661100 12.010000
69 L21_hX 1 SSM H3A 69 0.19156900 1.008000
70 L21_hX 1 SSM H3B 70 0.19156900 1.008000
71 L21_hX 1 SSM H3C 71 0.19156900 1.008000
72 L21_cA 1 SSM C34 72 -0.38661100 12.010000
73 L21_hX 1 SSM H4A 73 0.19156900 1.008000
74 L21_hX 1 SSM H4B 74 0.19156900 1.008000
75 L21_hX 1 SSM H4C 75 0.19156900 1.008000
76 L21_cA 1 SSM C35 76 -0.38661100 12.010000
77 L21_hX 1 SSM H5A 77 0.19156900 1.008000
78 L21_hX 1 SSM H5B 78 0.19156900 1.008000
79 L21_hX 1 SSM H5C 79 0.19156900 1.008000
80 L21_oP 1 SSM O33 80 -0.88478900 16.000000
81 L21_oP 1 SSM O34 81 -0.88478900 16.000000
82 L21_nN 1 SSM N11 82 -0.38841000 14.010000
83 L21_hN 1 SSM H11 83 0.27359200 1.008000
84 L21_cC 1 SSM C11 84 0.61723100 12.010000
85 L21_oC 1 SSM O12 85 -0.64530300 16.000000
86 L21_cA 1 SSM C1 86 0.32309200 12.010000
87 L21_hE 1 SSM HR 87 0.06920800 1.008000
88 L21_oH 1 SSM O22 88 -0.72303300 16.000000
89 L21_hO 1 SSM H22 89 0.43496400 1.008000
90 L21_cD 1 SSM C18S 90 -0.19999900 12.010000
91 L21_hL 1 SSM H18S 91 0.04947100 1.008000
92 L21_hL 1 SSM H18T 92 0.04947100 1.008000
93 L21_hL 1 SSM H18U 93 0.04947100 1.008000
94 L21_cD 1 SSM C17S 94 -0.04678100 12.010000
95 L21_hL 1 SSM H17S 95 0.02648400 1.008000
96 L21_hL 1 SSM H17T 96 0.02648400 1.008000
97 L21_cD 1 SSM C16S 97 0.04464800 12.010000
98 L21_hL 1 SSM H16S 98 0.01097000 1.008000
99 L21_hL 1 SSM H16T 99 0.01097000 1.008000
100 L21_cD 1 SSM C15S 100 -0.11922500 12.010000
101 L21_hL 1 SSM H15S 101 0.04033000 1.008000
102 L21_hL 1 SSM H15T 102 0.04033000 1.008000
103 L21_cD 1 SSM C14S 103 0.00104800 12.010000
104 L21_hL 1 SSM H14S 104 0.01693500 1.008000
105 L21_hL 1 SSM H14T 105 0.01693500 1.008000
106 L21_cD 1 SSM C13S 106 -0.07941700 12.010000
107 L21_hL 1 SSM H13S 107 0.02350200 1.008000
108 L21_hL 1 SSM H13T 108 0.02350200 1.008000
109 L21_cD 1 SSM C12S 109 -0.06637200 12.010000
110 L21_hL 1 SSM H12S 110 0.02172300 1.008000
111 L21_hL 1 SSM H12T 111 0.02172300 1.008000
112 L21_cD 1 SSM C11S 112 0.05335200 12.010000
113 L21_hL 1 SSM H11S 113 0.02020000 1.008000
114 L21_hL 1 SSM H11T 114 0.02020000 1.008000
115 L21_cD 1 SSM C10S 115 -0.18788900 12.010000
116 L21_hL 1 SSM H10S 116 0.04690900 1.008000
117 L21_hL 1 SSM H10T 117 0.04690900 1.008000
118 L21_cD 1 SSM C9S 118 0.04928800 12.010000
119 L21_hL 1 SSM H9S 119 0.00604500 1.008000
120 L21_hL 1 SSM H9T 120 0.00604500 1.008000
121 L21_cD 1 SSM C8S 121 -0.01299700 12.010000
122 L21_hL 1 SSM H8S 122 0.00322300 1.008000
123 L21_hL 1 SSM H8T 123 0.00322300 1.008000
124 L21_cD 1 SSM C7S 124 0.09317100 12.010000
125 L21_hL 1 SSM H7S 125 -0.01169000 1.008000
126 L21_hL 1 SSM H7T 126 -0.01169000 1.008000
127 L21_cD 1 SSM C6S 127 -0.25813800 12.010000
128 L21_hL 1 SSM H6S 128 0.07684300 1.008000
129 L21_hL 1 SSM H6T 129 0.07684300 1.008000
130 L21_cB 1 SSM C5S 130 0.02829000 12.010000
131 L21_hB 1 SSM H5S 131 0.11628100 1.008000
132 L21_cB 1 SSM C4S 132 -0.34188900 12.010000
133 L21_hB 1 SSM H4S 133 0.14555000 1.008000

[ bonds ]
;    ai     aj funct         c0         c1         c2         c3
     50     84     1   0.15080 274721.440000
     47     50     1   0.15350 253634.080000
     44     47     1   0.15350 253634.080000
     41     44     1   0.15350 253634.080000
     38     41     1   0.15350 253634.080000
     35     38     1   0.15350 253634.080000
     32     35     1   0.15350 253634.080000
     29     32     1   0.15350 253634.080000
     26     29     1   0.15350 253634.080000
     23     26     1   0.15350 253634.080000
     20     23     1   0.15350 253634.080000
     17     20     1   0.15350 253634.080000
     14     17     1   0.15350 253634.080000
     11     14     1   0.15350 253634.080000
      8     11     1   0.15350 253634.080000
      5      8     1   0.15350 253634.080000
      1      5     1   0.15350 253634.080000
     86     88     1   0.14260 262838.880000
     86    132     1   0.15080 274721.440000
     84     85     1   0.12140 542246.400000
     82     84     1   0.13450 400157.760000
     67     72     1   0.14990 245684.480000
     67     76     1   0.14990 245684.480000
     67     68     1   0.14990 245684.480000
     64     67     1   0.14990 245684.480000
     61     64     1   0.15350 253634.080000
     60     61     1   0.14390 252295.200000
     59     60     1   0.16100 192464.000000
     59     80     1   0.14800 439320.000000
     59     81     1   0.14800 439320.000000
     58     59     1   0.16100 192464.000000
     55     58     1   0.14390 252295.200000
     53     82     1   0.14600 276646.080000
     53     55     1   0.15350 253634.080000
     53     86     1   0.15350 253634.080000
    130    132     1   0.13240 493460.960000
    127    130     1   0.15080 274721.440000
    124    127     1   0.15350 253634.080000
    121    124     1   0.15350 253634.080000
    118    121     1   0.15350 253634.080000
    115    118     1   0.15350 253634.080000
    112    115     1   0.15350 253634.080000
    109    112     1   0.15350 253634.080000
    106    109     1   0.15350 253634.080000
    103    106     1   0.15350 253634.080000
    100    103     1   0.15350 253634.080000
     97    100     1   0.15350 253634.080000
     94     97     1   0.15350 253634.080000
     90     94     1   0.15350 253634.080000
     50     51     1   0.10920 282252.640000
     50     52     1   0.10920 282252.640000
     47     49     1   0.10920 282252.640000
     47     48     1   0.10920 282252.640000
     44     45     1   0.10920 282252.640000
     44     46     1   0.10920 282252.640000
     41     43     1   0.10920 282252.640000
     41     42     1   0.10920 282252.640000
     38     39     1   0.10920 282252.640000
     38     40     1   0.10920 282252.640000
     35     37     1   0.10920 282252.640000
     35     36     1   0.10920 282252.640000
     32     33     1   0.10920 282252.640000
     32     34     1   0.10920 282252.640000
     29     31     1   0.10920 282252.640000
     29     30     1   0.10920 282252.640000
     26     27     1   0.10920 282252.640000
     26     28     1   0.10920 282252.640000
     23     25     1   0.10920 282252.640000
     23     24     1   0.10920 282252.640000
     20     21     1   0.10920 282252.640000
     20     22     1   0.10920 282252.640000
     17     19     1   0.10920 282252.640000
     17     18     1   0.10920 282252.640000
     14     15     1   0.10920 282252.640000
     14     16     1   0.10920 282252.640000
     11     13     1   0.10920 282252.640000
     11     12     1   0.10920 282252.640000
      8      9     1   0.10920 282252.640000
      8     10     1   0.10920 282252.640000
      5      7     1   0.10920 282252.640000
      5      6     1   0.10920 282252.640000
      1      4     1   0.10920 282252.640000
      1      3     1   0.10920 282252.640000
      1      2     1   0.10920 282252.640000
     88     89     1   0.09740 309281.280000
     86     87     1   0.10930 281081.120000
     82     83     1   0.10090 343255.360000
     76     79     1   0.10910 283424.160000
     76     77     1   0.10910 283424.160000
     76     78     1   0.10910 283424.160000
     72     75     1   0.10910 283424.160000
     72     74     1   0.10910 283424.160000
     72     73     1   0.10910 283424.160000
     68     69     1   0.10910 283424.160000
     68     70     1   0.10910 283424.160000
     68     71     1   0.10910 283424.160000
     64     65     1   0.10910 283424.160000
     64     66     1   0.10910 283424.160000
     61     63     1   0.10930 281081.120000
     61     62     1   0.10930 281081.120000
     55     57     1   0.10930 281081.120000
     55     56     1   0.10930 281081.120000
     53     54     1   0.10930 281081.120000
    132    133     1   0.10870 288110.240000
    130    131     1   0.10870 288110.240000
    127    128     1   0.10920 282252.640000
    127    129     1   0.10920 282252.640000
    124    126     1   0.10920 282252.640000
    124    125     1   0.10920 282252.640000
    121    122     1   0.10920 282252.640000
    121    123     1   0.10920 282252.640000
    118    120     1   0.10920 282252.640000
    118    119     1   0.10920 282252.640000
    115    117     1   0.10920 282252.640000
    115    116     1   0.10920 282252.640000
    112    113     1   0.10920 282252.640000
    112    114     1   0.10920 282252.640000
    109    110     1   0.10920 282252.640000
    109    111     1   0.10920 282252.640000
    106    108     1   0.10920 282252.640000
    106    107     1   0.10920 282252.640000
    103    105     1   0.10920 282252.640000
    103    104     1   0.10920 282252.640000
    100    102     1   0.10920 282252.640000
    100    101     1   0.10920 282252.640000
     97     98     1   0.10920 282252.640000
     97     99     1   0.10920 282252.640000
     94     96     1   0.10920 282252.640000
     94     95     1   0.10920 282252.640000
     90     92     1   0.10920 282252.640000
     90     91     1   0.10920 282252.640000
     90     93     1   0.10920 282252.640000


[ pairs ]
;    ai     aj funct         c0         c1         c2         c3
     50     53     1
     47     82     1
     47     85     1
     44     84     1
     41     50     1
     38     47     1
     35     44     1
     32     41     1
     29     38     1
     26     35     1
     23     32     1
     20     29     1
     17     26     1
     14     23     1
     11     20     1
      8     17     1
      5     14     1
      1     11     1
     88    130     1
     86    127     1
     84     86     1
     82     88     1
     82    132     1
     61     80     1
     61     81     1
     61     72     1
     61     76     1
     61     68     1
     60     67     1
     59     64     1
     58     82     1
     58     86     1
     58     61     1
     55     84     1
     55     88     1
     55    132     1
     55     60     1
     55     80     1
     55     81     1
     53     85     1
     53     59     1
     53    130     1
    124    132     1
    121    130     1
    118    127     1
    115    124     1
    112    121     1
    109    118     1
    106    115     1
    103    112     1
    100    109     1
     97    106     1
     94    103     1
     90    100     1
     52     82     1
     52     85     1
     51     82     1
     51     85     1
     50     83     1
     49     51     1
     49     52     1
     49     84     1
     48     51     1
     48     52     1
     48     84     1
     46     50     1
     46     49     1
     46     48     1
     45     50     1
     45     49     1
     45     48     1
     44     51     1
     44     52     1
     43     47     1
     43     45     1
     43     46     1
     42     47     1
     42     45     1
     42     46     1
     41     49     1
     41     48     1
     40     44     1
     40     43     1
     40     42     1
     39     44     1
     39     43     1
     39     42     1
     38     45     1
     38     46     1
     37     41     1
     37     39     1
     37     40     1
     36     41     1
     36     39     1
     36     40     1
     35     43     1
     35     42     1
     34     38     1
     34     37     1
     34     36     1
     33     38     1
     33     37     1
     33     36     1
     32     39     1
     32     40     1
     31     35     1
     31     33     1
     31     34     1
     30     35     1
     30     33     1
     30     34     1
     29     37     1
     29     36     1
     28     32     1
     28     31     1
     28     30     1
     27     32     1
     27     31     1
     27     30     1
     26     33     1
     26     34     1
     25     29     1
     25     27     1
     25     28     1
     24     29     1
     24     27     1
     24     28     1
     23     31     1
     23     30     1
     22     26     1
     22     25     1
     22     24     1
     21     26     1
     21     25     1
     21     24     1
     20     27     1
     20     28     1
     19     23     1
     19     21     1
     19     22     1
     18     23     1
     18     21     1
     18     22     1
     17     25     1
     17     24     1
     16     20     1
     16     19     1
     16     18     1
     15     20     1
     15     19     1
     15     18     1
     14     21     1
     14     22     1
     13     17     1
     13     15     1
     13     16     1
     12     17     1
     12     15     1
     12     16     1
     11     19     1
     11     18     1
     10     14     1
     10     13     1
     10     12     1
      9     14     1
      9     13     1
      9     12     1
      8     15     1
      8     16     1
      7     11     1
      7      9     1
      7     10     1
      6     11     1
      6      9     1
      6     10     1
      5     13     1
      5     12     1
      4      8     1
      4      7     1
      4      6     1
      3      8     1
      3      7     1
      3      6     1
      2      8     1
      2      7     1
      2      6     1
      1      9     1
      1     10     1
     89    132     1
     88    133     1
     87     89     1
     87    130     1
     87    133     1
     86    131     1
     83     86     1
     83     85     1
     82     87     1
     75     76     1
     74     76     1
     73     76     1
     72     79     1
     72     77     1
     72     78     1
     71     72     1
     71     76     1
     70     72     1
     70     76     1
     69     72     1
     69     76     1
     68     75     1
     68     74     1
     68     73     1
     68     79     1
     68     77     1
     68     78     1
     66     72     1
     66     76     1
     66     68     1
     65     72     1
     65     76     1
     65     68     1
     64     75     1
     64     74     1
     64     73     1
     64     79     1
     64     77     1
     64     78     1
     64     69     1
     64     70     1
     64     71     1
     63     67     1
     63     65     1
     63     66     1
     62     67     1
     62     65     1
     62     66     1
     60     65     1
     60     66     1
     59     63     1
     59     62     1
     57     82     1
     57     86     1
     57     59     1
     56     82     1
     56     86     1
     56     59     1
     55     83     1
     55     87     1
     54     84     1
     54     83     1
     54     58     1
     54     57     1
     54     56     1
     54     87     1
     54     88     1
     54    132     1
     53     89     1
     53    133     1
    131    133     1
    129    132     1
    129    131     1
    128    132     1
    128    131     1
    127    133     1
    126    130     1
    126    128     1
    126    129     1
    125    130     1
    125    128     1
    125    129     1
    124    131     1
    123    127     1
    123    126     1
    123    125     1
    122    127     1
    122    126     1
    122    125     1
    121    128     1
    121    129     1
    120    124     1
    120    122     1
    120    123     1
    119    124     1
    119    122     1
    119    123     1
    118    126     1
    118    125     1
    117    121     1
    117    120     1
    117    119     1
    116    121     1
    116    120     1
    116    119     1
    115    122     1
    115    123     1
    114    118     1
    114    117     1
    114    116     1
    113    118     1
    113    117     1
    113    116     1
    112    120     1
    112    119     1
    111    115     1
    111    113     1
    111    114     1
    110    115     1
    110    113     1
    110    114     1
    109    117     1
    109    116     1
    108    112     1
    108    110     1
    108    111     1
    107    112     1
    107    110     1
    107    111     1
    106    113     1
    106    114     1
    105    109     1
    105    108     1
    105    107     1
    104    109     1
    104    108     1
    104    107     1
    103    110     1
    103    111     1
    102    106     1
    102    105     1
    102    104     1
    101    106     1
    101    105     1
    101    104     1
    100    108     1
    100    107     1
     99    103     1
     99    102     1
     99    101     1
     98    103     1
     98    102     1
     98    101     1
     97    105     1
     97    104     1
     96    100     1
     96     98     1
     96     99     1
     95    100     1
     95     98     1
     95     99     1
     94    102     1
     94    101     1
     93     97     1
     93     96     1
     93     95     1
     92     97     1
     92     96     1
     92     95     1
     91     97     1
     91     96     1
     91     95     1
     90     98     1
     90     99     1


[ angles ]
;    ai     aj     ak funct         c0         c1         c2         c3
     50     84     82     1   115.1500496 567.852480
     50     84     85     1   123.1100526 569.275040
     47     50     84     1   110.5300474 533.794720
     44     47     50     1   112.0500483 394.969600
     41     44     47     1   112.0500483 394.969600
     38     41     44     1   112.0500483 394.969600
     35     38     41     1   112.0500483 394.969600
     32     35     38     1   112.0500483 394.969600
     29     32     35     1   112.0500483 394.969600
     26     29     32     1   112.0500483 394.969600
     23     26     29     1   112.0500483 394.969600
     20     23     26     1   112.0500483 394.969600
     17     20     23     1   112.0500483 394.969600
     14     17     20     1   112.0500483 394.969600
     11     14     17     1   112.0500483 394.969600
      8     11     14     1   112.0500483 394.969600
      5      8     11     1   112.0500483 394.969600
      1      5      8     1   112.0500483 394.969600
     88     86    132     1   110.2100471 570.530240
     86    132    130     1   123.4200531 538.313440
     82     53     86     1   112.1300481 551.032800
     82     84     85     1   122.0300524 634.545440
     80     59     81     1   119.9000514 1171.520000
     72     67     76     1   110.6400473 525.845120
     68     67     72     1   110.6400473 525.845120
     68     67     76     1   110.6400473 525.845120
     64     67     72     1   110.6400473 525.845120
     64     67     76     1   110.6400473 525.845120
     64     67     68     1   110.6400473 525.845120
     61     64     67     1   114.3200492 539.317600
     60     59     80     1   108.2300464 836.800000
     60     59     81     1   108.2300464 836.800000
     60     61     64     1   108.4200467 567.183040
     59     60     61     1   120.5000516 836.800000
     58     59     60     1   102.6000440 753.120000
     58     59     80     1   108.2300464 836.800000
     58     59     81     1   108.2300464 836.800000
     55     53     82     1   112.1300481 551.032800
     55     53     86     1   110.6300475 528.941280
     55     58     59     1   120.5000516 836.800000
     53     82     84     1   121.3500523 534.882560
     53     55     58     1   108.4200467 567.183040
     53     86     88     1   109.4300470 566.680960
     53     86    132     1   111.4400476 531.619040
    127    130    132     1   123.4200531 538.313440
    124    127    130     1   111.4400476 531.619040
    121    124    127     1   112.0500483 394.969600
    118    121    124     1   112.0500483 394.969600
    115    118    121     1   112.0500483 394.969600
    112    115    118     1   112.0500483 394.969600
    109    112    115     1   112.0500483 394.969600
    106    109    112     1   112.0500483 394.969600
    103    106    109     1   112.0500483 394.969600
    100    103    106     1   112.0500483 394.969600
     97    100    103     1   112.0500483 394.969600
     94     97    100     1   112.0500483 394.969600
     90     94     97     1   112.0500483 394.969600
     52     50     84     1   109.6800468 394.969600
     51     50     52     1   108.3500467 329.950240
     51     50     84     1   109.6800468 394.969600
     49     47     50     1   110.0500475 388.024160
     48     47     50     1   110.0500475 388.024160
     48     47     49     1   108.3500467 329.950240
     47     50     51     1   110.0500475 388.024160
     47     50     52     1   110.0500475 388.024160
     46     44     47     1   110.0500475 388.024160
     45     44     47     1   110.0500475 388.024160
     45     44     46     1   108.3500467 329.950240
     44     47     49     1   110.0500475 388.024160
     44     47     48     1   110.0500475 388.024160
     43     41     44     1   110.0500475 388.024160
     42     41     44     1   110.0500475 388.024160
     42     41     43     1   108.3500467 329.950240
     41     44     45     1   110.0500475 388.024160
     41     44     46     1   110.0500475 388.024160
     40     38     41     1   110.0500475 388.024160
     39     38     41     1   110.0500475 388.024160
     39     38     40     1   108.3500467 329.950240
     38     41     43     1   110.0500475 388.024160
     38     41     42     1   110.0500475 388.024160
     37     35     38     1   110.0500475 388.024160
     36     35     38     1   110.0500475 388.024160
     36     35     37     1   108.3500467 329.950240
     35     38     39     1   110.0500475 388.024160
     35     38     40     1   110.0500475 388.024160
     34     32     35     1   110.0500475 388.024160
     33     32     35     1   110.0500475 388.024160
     33     32     34     1   108.3500467 329.950240
     32     35     37     1   110.0500475 388.024160
     32     35     36     1   110.0500475 388.024160
     31     29     32     1   110.0500475 388.024160
     30     29     32     1   110.0500475 388.024160
     30     29     31     1   108.3500467 329.950240
     29     32     33     1   110.0500475 388.024160
     29     32     34     1   110.0500475 388.024160
     28     26     29     1   110.0500475 388.024160
     27     26     29     1   110.0500475 388.024160
     27     26     28     1   108.3500467 329.950240
     26     29     31     1   110.0500475 388.024160
     26     29     30     1   110.0500475 388.024160
     25     23     26     1   110.0500475 388.024160
     24     23     26     1   110.0500475 388.024160
     24     23     25     1   108.3500467 329.950240
     23     26     27     1   110.0500475 388.024160
     23     26     28     1   110.0500475 388.024160
     22     20     23     1   110.0500475 388.024160
     21     20     23     1   110.0500475 388.024160
     21     20     22     1   108.3500467 329.950240
     20     23     25     1   110.0500475 388.024160
     20     23     24     1   110.0500475 388.024160
     19     17     20     1   110.0500475 388.024160
     18     17     20     1   110.0500475 388.024160
     18     17     19     1   108.3500467 329.950240
     17     20     21     1   110.0500475 388.024160
     17     20     22     1   110.0500475 388.024160
     16     14     17     1   110.0500475 388.024160
     15     14     17     1   110.0500475 388.024160
     15     14     16     1   108.3500467 329.950240
     14     17     19     1   110.0500475 388.024160
     14     17     18     1   110.0500475 388.024160
     13     11     14     1   110.0500475 388.024160
     12     11     14     1   110.0500475 388.024160
     12     11     13     1   108.3500467 329.950240
     11     14     15     1   110.0500475 388.024160
     11     14     16     1   110.0500475 388.024160
     10      8     11     1   110.0500475 388.024160
      9      8     11     1   110.0500475 388.024160
      9      8     10     1   108.3500467 329.950240
      8     11     13     1   110.0500475 388.024160
      8     11     12     1   110.0500475 388.024160
      7      5      8     1   110.0500475 388.024160
      6      5      8     1   110.0500475 388.024160
      6      5      7     1   108.3500467 329.950240
      5      8      9     1   110.0500475 388.024160
      5      8     10     1   110.0500475 388.024160
      4      1      5     1   110.0500475 388.024160
      3      1      5     1   110.0500475 388.024160
      3      1      4     1   108.3500467 329.950240
      2      1      5     1   110.0500475 388.024160
      2      1      4     1   108.3500467 329.950240
      2      1      3     1   108.3500467 329.950240
      1      5      7     1   110.0500475 388.024160
      1      5      6     1   110.0500475 388.024160
     87     86     88     1   109.8800469 426.516960
     87     86    132     1   110.4600475 393.547040
     86     88     89     1   108.1600465 394.049120
     86    132    133     1   117.3000503 382.082880
     83     82     84     1   118.4600509 411.789280
     78     76     79     1   110.7400473 326.686720
     77     76     79     1   110.7400473 326.686720
     77     76     78     1   110.7400473 326.686720
     74     72     75     1   110.7400473 326.686720
     73     72     75     1   110.7400473 326.686720
     73     72     74     1   110.7400473 326.686720
     70     68     71     1   110.7400473 326.686720
     69     68     70     1   110.7400473 326.686720
     69     68     71     1   110.7400473 326.686720
     67     72     75     1   107.9100461 410.199360
     67     72     74     1   107.9100461 410.199360
     67     72     73     1   107.9100461 410.199360
     67     76     79     1   107.9100461 410.199360
     67     76     77     1   107.9100461 410.199360
     67     76     78     1   107.9100461 410.199360
     67     68     69     1   107.9100461 410.199360
     67     68     70     1   107.9100461 410.199360
     67     68     71     1   107.9100461 410.199360
     66     64     67     1   107.9100461 410.199360
     65     64     67     1   107.9100461 410.199360
     65     64     66     1   110.7400473 326.686720
     63     61     64     1   110.0700471 387.940480
     62     61     64     1   110.0700471 387.940480
     62     61     63     1   109.5500472 327.858240
     61     64     65     1   111.7400478 385.095360
     61     64     66     1   111.7400478 385.095360
     60     61     63     1   108.8200469 425.429120
     60     61     62     1   108.8200469 425.429120
     57     55     58     1   108.8200469 425.429120
     56     55     58     1   108.8200469 425.429120
     56     55     57     1   109.5500472 327.858240
     54     53     82     1   109.3200471 416.893760
     54     53     55     1   110.0700471 387.940480
     54     53     86     1   110.0700471 387.940480
     53     82     83     1   116.7800498 385.262720
     53     55     57     1   110.0700471 387.940480
     53     55     56     1   110.0700471 387.940480
     53     86     87     1   110.0700471 387.940480
    131    130    132     1   120.9400517 418.734720
    130    132    133     1   120.9400517 418.734720
    129    127    130     1   110.4900475 393.547040
    128    127    130     1   110.4900475 393.547040
    128    127    129     1   108.3500467 329.950240
    127    130    131     1   117.3000503 382.082880
    126    124    127     1   110.0500475 388.024160
    125    124    127     1   110.0500475 388.024160
    125    124    126     1   108.3500467 329.950240
    124    127    128     1   110.0500475 388.024160
    124    127    129     1   110.0500475 388.024160
    123    121    124     1   110.0500475 388.024160
    122    121    124     1   110.0500475 388.024160
    122    121    123     1   108.3500467 329.950240
    121    124    126     1   110.0500475 388.024160
    121    124    125     1   110.0500475 388.024160
    120    118    121     1   110.0500475 388.024160
    119    118    121     1   110.0500475 388.024160
    119    118    120     1   108.3500467 329.950240
    118    121    122     1   110.0500475 388.024160
    118    121    123     1   110.0500475 388.024160
    117    115    118     1   110.0500475 388.024160
    116    115    118     1   110.0500475 388.024160
    116    115    117     1   108.3500467 329.950240
    115    118    120     1   110.0500475 388.024160
    115    118    119     1   110.0500475 388.024160
    114    112    115     1   110.0500475 388.024160
    113    112    115     1   110.0500475 388.024160
    113    112    114     1   108.3500467 329.950240
    112    115    117     1   110.0500475 388.024160
    112    115    116     1   110.0500475 388.024160
    111    109    112     1   110.0500475 388.024160
    110    109    112     1   110.0500475 388.024160
    110    109    111     1   108.3500467 329.950240
    109    112    113     1   110.0500475 388.024160
    109    112    114     1   110.0500475 388.024160
    108    106    109     1   110.0500475 388.024160
    107    106    109     1   110.0500475 388.024160
    107    106    108     1   108.3500467 329.950240
    106    109    110     1   110.0500475 388.024160
    106    109    111     1   110.0500475 388.024160
    105    103    106     1   110.0500475 388.024160
    104    103    106     1   110.0500475 388.024160
    104    103    105     1   108.3500467 329.950240
    103    106    108     1   110.0500475 388.024160
    103    106    107     1   110.0500475 388.024160
    102    100    103     1   110.0500475 388.024160
    101    100    103     1   110.0500475 388.024160
    101    100    102     1   108.3500467 329.950240
    100    103    105     1   110.0500475 388.024160
    100    103    104     1   110.0500475 388.024160
     99     97    100     1   110.0500475 388.024160
     98     97    100     1   110.0500475 388.024160
     98     97     99     1   108.3500467 329.950240
     97    100    102     1   110.0500475 388.024160
     97    100    101     1   110.0500475 388.024160
     96     94     97     1   110.0500475 388.024160
     95     94     97     1   110.0500475 388.024160
     95     94     96     1   108.3500467 329.950240
     94     97     98     1   110.0500475 388.024160
     94     97     99     1   110.0500475 388.024160
     93     90     94     1   110.0500475 388.024160
     92     90     94     1   110.0500475 388.024160
     92     90     93     1   108.3500467 329.950240
     91     90     94     1   110.0500475 388.024160
     91     90     92     1   108.3500467 329.950240
     91     90     93     1   108.3500467 329.950240
     90     94     96     1   110.0500475 388.024160
     90     94     95     1   110.0500475 388.024160


[ dihedrals ]
;    ai     aj     ak     al funct         c0         c1         c2         c3         c4         c5
     50     84     82     53     1  180.0000771  10.4600000  2
     47     50     84     82     1  180.0000771  0.0000000  2
     47     50     84     85     1  180.0000771  0.0000000  2
     44     47     50     84     1  0.0000000  0.6527040  3
     41     44     47     50     1  0.0000000  0.4184000  1
     41     44     47     50     1  0.0000000  0.4184000  2
     41     44     47     50     1  0.0000000  1.2552000  3
     41     44     47     50     1  0.0000000  0.4184000  4
     41     44     47     50     1  0.0000000  0.4184000  5
     38     41     44     47     1  0.0000000  0.4184000  1
     38     41     44     47     1  0.0000000  0.4184000  2
     38     41     44     47     1  0.0000000  1.2552000  3
     38     41     44     47     1  0.0000000  0.4184000  4
     38     41     44     47     1  0.0000000  0.4184000  5
     35     38     41     44     1  0.0000000  0.4184000  1
     35     38     41     44     1  0.0000000  0.4184000  2
     35     38     41     44     1  0.0000000  1.2552000  3
     35     38     41     44     1  0.0000000  0.4184000  4
     35     38     41     44     1  0.0000000  0.4184000  5
     32     35     38     41     1  0.0000000  0.4184000  1
     32     35     38     41     1  0.0000000  0.4184000  2
     32     35     38     41     1  0.0000000  1.2552000  3
     32     35     38     41     1  0.0000000  0.4184000  4
     32     35     38     41     1  0.0000000  0.4184000  5
     29     32     35     38     1  0.0000000  0.4184000  1
     29     32     35     38     1  0.0000000  0.4184000  2
     29     32     35     38     1  0.0000000  1.2552000  3
     29     32     35     38     1  0.0000000  0.4184000  4
     29     32     35     38     1  0.0000000  0.4184000  5
     26     29     32     35     1  0.0000000  0.4184000  1
     26     29     32     35     1  0.0000000  0.4184000  2
     26     29     32     35     1  0.0000000  1.2552000  3
     26     29     32     35     1  0.0000000  0.4184000  4
     26     29     32     35     1  0.0000000  0.4184000  5
     23     26     29     32     1  0.0000000  0.4184000  1
     23     26     29     32     1  0.0000000  0.4184000  2
     23     26     29     32     1  0.0000000  1.2552000  3
     23     26     29     32     1  0.0000000  0.4184000  4
     23     26     29     32     1  0.0000000  0.4184000  5
     20     23     26     29     1  0.0000000  0.4184000  1
     20     23     26     29     1  0.0000000  0.4184000  2
     20     23     26     29     1  0.0000000  1.2552000  3
     20     23     26     29     1  0.0000000  0.4184000  4
     20     23     26     29     1  0.0000000  0.4184000  5
     17     20     23     26     1  0.0000000  0.4184000  1
     17     20     23     26     1  0.0000000  0.4184000  2
     17     20     23     26     1  0.0000000  1.2552000  3
     17     20     23     26     1  0.0000000  0.4184000  4
     17     20     23     26     1  0.0000000  0.4184000  5
     14     17     20     23     1  0.0000000  0.4184000  1
     14     17     20     23     1  0.0000000  0.4184000  2
     14     17     20     23     1  0.0000000  1.2552000  3
     14     17     20     23     1  0.0000000  0.4184000  4
     14     17     20     23     1  0.0000000  0.4184000  5
     11     14     17     20     1  0.0000000  0.4184000  1
     11     14     17     20     1  0.0000000  0.4184000  2
     11     14     17     20     1  0.0000000  1.2552000  3
     11     14     17     20     1  0.0000000  0.4184000  4
     11     14     17     20     1  0.0000000  0.4184000  5
      8     11     14     17     1  0.0000000  0.4184000  1
      8     11     14     17     1  0.0000000  0.4184000  2
      8     11     14     17     1  0.0000000  1.2552000  3
      8     11     14     17     1  0.0000000  0.4184000  4
      8     11     14     17     1  0.0000000  0.4184000  5
      5      8     11     14     1  0.0000000  0.4184000  1
      5      8     11     14     1  0.0000000  0.4184000  2
      5      8     11     14     1  0.0000000  1.2552000  3
      5      8     11     14     1  0.0000000  0.4184000  4
      5      8     11     14     1  0.0000000  0.4184000  5
      1      5      8     11     1  0.0000000  0.4184000  1
      1      5      8     11     1  0.0000000  0.4184000  2
      1      5      8     11     1  0.0000000  1.2552000  3
      1      5      8     11     1  0.0000000  0.4184000  4
      1      5      8     11     1  0.0000000  0.4184000  5
     88     86    132    130     1  0.0000000  0.0000000  2
     86    132    130    127     1  180.0000771  7.9496000  1
     86    132    130    127     1  180.0000771  27.8236000  2
     84     82     53     86     1  0.0000000  0.0000000  2
     82     53     86     88     1  0.0000000  0.6527040  3
     82     53     86    132     1  60.0000257  1.6736000  1
     82     53     86    132     1  180.0000771  5.4392000  2
     82     53     86    132     1  0.0000000  10.0416000  3
     61     60     59     80     1  0.0000000  0.0000000  1
     61     60     59     80     1  0.0000000  0.8368000  2
     61     60     59     80     1  0.0000000  0.0000000  3
     61     60     59     80     1  0.0000000  0.0000000  4
     61     60     59     80     1  0.0000000  0.0000000  5
     61     60     59     81     1  0.0000000  0.0000000  1
     61     60     59     81     1  0.0000000  0.8368000  2
     61     60     59     81     1  0.0000000  0.0000000  3
     61     60     59     81     1  0.0000000  0.0000000  4
     61     60     59     81     1  0.0000000  0.0000000  5
     61     64     67     72     1  0.0000000  0.6527040  3
     61     64     67     76     1  0.0000000  0.6527040  3
     61     64     67     68     1  0.0000000  0.6527040  3
     60     61     64     67     1  0.0000000  4.1840000  3
     59     60     61     64     1  180.0000771  -3.3472000  2
     59     60     61     64     1  0.0000000  0.0000000  3
     58     55     53     82     1  0.0000000  0.0000000  3
     58     55     53     86     1  180.0000771  3.3472000  1
     58     55     53     86     1  120.0000514  0.8368000  2
     58     55     53     86     1  60.0000257  1.6736000  3
     58     59     60     61     1  0.0000000  9.6232000  2
     58     59     60     61     1  0.0000000  2.5104000  3
     55     53     82     84     1  0.0000000  0.0000000  2
     55     53     86     88     1  0.0000000  0.6510304  3
     55     53     86    132     1  0.0000000  0.0000000  1
     55     53     86    132     1  0.0000000  0.0000000  2
     55     53     86    132     1  0.0000000  0.0000000  3
     55     53     86    132     1  0.0000000  0.0000000  4
     55     53     86    132     1  0.0000000  0.0000000  5
     55     58     59     60     1  0.0000000  9.6232000  2
     55     58     59     60     1  0.0000000  2.5104000  3
     55     58     59     80     1  0.0000000  0.0000000  1
     55     58     59     80     1  0.0000000  0.8368000  2
     55     58     59     80     1  0.0000000  0.0000000  3
     55     58     59     80     1  0.0000000  0.0000000  4
     55     58     59     80     1  0.0000000  0.0000000  5
     55     58     59     81     1  0.0000000  0.0000000  1
     55     58     59     81     1  0.0000000  0.8368000  2
     55     58     59     81     1  0.0000000  0.0000000  3
     55     58     59     81     1  0.0000000  0.0000000  4
     55     58     59     81     1  0.0000000  0.0000000  5
     53     82     84     85     1  180.0000771  10.4600000  2
     53     55     58     59     1  180.0000771  -3.3472000  2
     53     55     58     59     1  0.0000000  0.0000000  3
     53     86    132    130     1  0.0000000  0.0000000  2
    124    127    130    132     1  0.0000000  2.5104000  1
    124    127    130    132     1  180.0000771  1.6736000  2
    124    127    130    132     1  180.0000771  1.6736000  3
    124    127    130    132     1  180.0000771  0.8368000  4
    124    127    130    132     1  180.0000771  0.8368000  5
    121    124    127    130     1  0.0000000  0.0000000  1
    121    124    127    130     1  0.0000000  0.0000000  2
    121    124    127    130     1  0.0000000  2.0920000  3
    121    124    127    130     1  0.0000000  0.0000000  4
    121    124    127    130     1  0.0000000  0.4184000  5
    118    121    124    127     1  0.0000000  0.4184000  1
    118    121    124    127     1  0.0000000  0.4184000  2
    118    121    124    127     1  0.0000000  1.2552000  3
    118    121    124    127     1  0.0000000  0.4184000  4
    118    121    124    127     1  0.0000000  0.4184000  5
    115    118    121    124     1  0.0000000  0.4184000  1
    115    118    121    124     1  0.0000000  0.4184000  2
    115    118    121    124     1  0.0000000  1.2552000  3
    115    118    121    124     1  0.0000000  0.4184000  4
    115    118    121    124     1  0.0000000  0.4184000  5
    112    115    118    121     1  0.0000000  0.4184000  1
    112    115    118    121     1  0.0000000  0.4184000  2
    112    115    118    121     1  0.0000000  1.2552000  3
    112    115    118    121     1  0.0000000  0.4184000  4
    112    115    118    121     1  0.0000000  0.4184000  5
    109    112    115    118     1  0.0000000  0.4184000  1
    109    112    115    118     1  0.0000000  0.4184000  2
    109    112    115    118     1  0.0000000  1.2552000  3
    109    112    115    118     1  0.0000000  0.4184000  4
    109    112    115    118     1  0.0000000  0.4184000  5
    106    109    112    115     1  0.0000000  0.4184000  1
    106    109    112    115     1  0.0000000  0.4184000  2
    106    109    112    115     1  0.0000000  1.2552000  3
    106    109    112    115     1  0.0000000  0.4184000  4
    106    109    112    115     1  0.0000000  0.4184000  5
    103    106    109    112     1  0.0000000  0.4184000  1
    103    106    109    112     1  0.0000000  0.4184000  2
    103    106    109    112     1  0.0000000  1.2552000  3
    103    106    109    112     1  0.0000000  0.4184000  4
    103    106    109    112     1  0.0000000  0.4184000  5
    100    103    106    109     1  0.0000000  0.4184000  1
    100    103    106    109     1  0.0000000  0.4184000  2
    100    103    106    109     1  0.0000000  1.2552000  3
    100    103    106    109     1  0.0000000  0.4184000  4
    100    103    106    109     1  0.0000000  0.4184000  5
     97    100    103    106     1  0.0000000  0.4184000  1
     97    100    103    106     1  0.0000000  0.4184000  2
     97    100    103    106     1  0.0000000  1.2552000  3
     97    100    103    106     1  0.0000000  0.4184000  4
     97    100    103    106     1  0.0000000  0.4184000  5
     94     97    100    103     1  0.0000000  0.4184000  1
     94     97    100    103     1  0.0000000  0.4184000  2
     94     97    100    103     1  0.0000000  1.2552000  3
     94     97    100    103     1  0.0000000  0.4184000  4
     94     97    100    103     1  0.0000000  0.4184000  5
     90     94     97    100     1  0.0000000  0.4184000  1
     90     94     97    100     1  0.0000000  0.4184000  2
     90     94     97    100     1  0.0000000  1.2552000  3
     90     94     97    100     1  0.0000000  0.4184000  4
     90     94     97    100     1  0.0000000  0.4184000  5
     50     82     84     85     4  180.0000771  4.6024000  2
     52     50     84     82     1  0.0000000  0.0000000  2
     52     50     84     85     1  0.0000000  3.3472000  1
     52     50     84     85     1  180.0000771  0.3347200  3
     51     50     84     82     1  0.0000000  0.0000000  2
     51     50     84     85     1  0.0000000  3.3472000  1
     51     50     84     85     1  180.0000771  0.3347200  3
     50     84     82     83     1  180.0000771  10.4600000  2
     49     47     50     51     1  0.0000000  0.6276000  3
     49     47     50     52     1  0.0000000  0.6276000  3
     49     47     50     84     1  0.0000000  0.6527040  3
     48     47     50     51     1  0.0000000  0.6276000  3
     48     47     50     52     1  0.0000000  0.6276000  3
     48     47     50     84     1  0.0000000  0.6527040  3
     46     44     47     50     1  0.0000000  0.6694400  3
     46     44     47     49     1  0.0000000  0.6276000  3
     46     44     47     48     1  0.0000000  0.6276000  3
     45     44     47     50     1  0.0000000  0.6694400  3
     45     44     47     49     1  0.0000000  0.6276000  3
     45     44     47     48     1  0.0000000  0.6276000  3
     44     47     50     51     1  0.0000000  0.6694400  3
     44     47     50     52     1  0.0000000  0.6694400  3
     43     41     44     47     1  0.0000000  0.6694400  3
     43     41     44     45     1  0.0000000  0.6276000  3
     43     41     44     46     1  0.0000000  0.6276000  3
     42     41     44     47     1  0.0000000  0.6694400  3
     42     41     44     45     1  0.0000000  0.6276000  3
     42     41     44     46     1  0.0000000  0.6276000  3
     41     44     47     49     1  0.0000000  0.6694400  3
     41     44     47     48     1  0.0000000  0.6694400  3
     40     38     41     44     1  0.0000000  0.6694400  3
     40     38     41     43     1  0.0000000  0.6276000  3
     40     38     41     42     1  0.0000000  0.6276000  3
     39     38     41     44     1  0.0000000  0.6694400  3
     39     38     41     43     1  0.0000000  0.6276000  3
     39     38     41     42     1  0.0000000  0.6276000  3
     38     41     44     45     1  0.0000000  0.6694400  3
     38     41     44     46     1  0.0000000  0.6694400  3
     37     35     38     41     1  0.0000000  0.6694400  3
     37     35     38     39     1  0.0000000  0.6276000  3
     37     35     38     40     1  0.0000000  0.6276000  3
     36     35     38     41     1  0.0000000  0.6694400  3
     36     35     38     39     1  0.0000000  0.6276000  3
     36     35     38     40     1  0.0000000  0.6276000  3
     35     38     41     43     1  0.0000000  0.6694400  3
     35     38     41     42     1  0.0000000  0.6694400  3
     34     32     35     38     1  0.0000000  0.6694400  3
     34     32     35     37     1  0.0000000  0.6276000  3
     34     32     35     36     1  0.0000000  0.6276000  3
     33     32     35     38     1  0.0000000  0.6694400  3
     33     32     35     37     1  0.0000000  0.6276000  3
     33     32     35     36     1  0.0000000  0.6276000  3
     32     35     38     39     1  0.0000000  0.6694400  3
     32     35     38     40     1  0.0000000  0.6694400  3
     31     29     32     35     1  0.0000000  0.6694400  3
     31     29     32     33     1  0.0000000  0.6276000  3
     31     29     32     34     1  0.0000000  0.6276000  3
     30     29     32     35     1  0.0000000  0.6694400  3
     30     29     32     33     1  0.0000000  0.6276000  3
     30     29     32     34     1  0.0000000  0.6276000  3
     29     32     35     37     1  0.0000000  0.6694400  3
     29     32     35     36     1  0.0000000  0.6694400  3
     28     26     29     32     1  0.0000000  0.6694400  3
     28     26     29     31     1  0.0000000  0.6276000  3
     28     26     29     30     1  0.0000000  0.6276000  3
     27     26     29     32     1  0.0000000  0.6694400  3
     27     26     29     31     1  0.0000000  0.6276000  3
     27     26     29     30     1  0.0000000  0.6276000  3
     26     29     32     33     1  0.0000000  0.6694400  3
     26     29     32     34     1  0.0000000  0.6694400  3
     25     23     26     29     1  0.0000000  0.6694400  3
     25     23     26     27     1  0.0000000  0.6276000  3
     25     23     26     28     1  0.0000000  0.6276000  3
     24     23     26     29     1  0.0000000  0.6694400  3
     24     23     26     27     1  0.0000000  0.6276000  3
     24     23     26     28     1  0.0000000  0.6276000  3
     23     26     29     31     1  0.0000000  0.6694400  3
     23     26     29     30     1  0.0000000  0.6694400  3
     22     20     23     26     1  0.0000000  0.6694400  3
     22     20     23     25     1  0.0000000  0.6276000  3
     22     20     23     24     1  0.0000000  0.6276000  3
     21     20     23     26     1  0.0000000  0.6694400  3
     21     20     23     25     1  0.0000000  0.6276000  3
     21     20     23     24     1  0.0000000  0.6276000  3
     20     23     26     27     1  0.0000000  0.6694400  3
     20     23     26     28     1  0.0000000  0.6694400  3
     19     17     20     23     1  0.0000000  0.6694400  3
     19     17     20     21     1  0.0000000  0.6276000  3
     19     17     20     22     1  0.0000000  0.6276000  3
     18     17     20     23     1  0.0000000  0.6694400  3
     18     17     20     21     1  0.0000000  0.6276000  3
     18     17     20     22     1  0.0000000  0.6276000  3
     17     20     23     25     1  0.0000000  0.6694400  3
     17     20     23     24     1  0.0000000  0.6694400  3
     16     14     17     20     1  0.0000000  0.6694400  3
     16     14     17     19     1  0.0000000  0.6276000  3
     16     14     17     18     1  0.0000000  0.6276000  3
     15     14     17     20     1  0.0000000  0.6694400  3
     15     14     17     19     1  0.0000000  0.6276000  3
     15     14     17     18     1  0.0000000  0.6276000  3
     14     17     20     21     1  0.0000000  0.6694400  3
     14     17     20     22     1  0.0000000  0.6694400  3
     13     11     14     17     1  0.0000000  0.6694400  3
     13     11     14     15     1  0.0000000  0.6276000  3
     13     11     14     16     1  0.0000000  0.6276000  3
     12     11     14     17     1  0.0000000  0.6694400  3
     12     11     14     15     1  0.0000000  0.6276000  3
     12     11     14     16     1  0.0000000  0.6276000  3
     11     14     17     19     1  0.0000000  0.6694400  3
     11     14     17     18     1  0.0000000  0.6694400  3
     10      8     11     14     1  0.0000000  0.6694400  3
     10      8     11     13     1  0.0000000  0.6276000  3
     10      8     11     12     1  0.0000000  0.6276000  3
      9      8     11     14     1  0.0000000  0.6694400  3
      9      8     11     13     1  0.0000000  0.6276000  3
      9      8     11     12     1  0.0000000  0.6276000  3
      8     11     14     15     1  0.0000000  0.6694400  3
      8     11     14     16     1  0.0000000  0.6694400  3
      7      5      8     11     1  0.0000000  0.6694400  3
      7      5      8      9     1  0.0000000  0.6276000  3
      7      5      8     10     1  0.0000000  0.6276000  3
      6      5      8     11     1  0.0000000  0.6694400  3
      6      5      8      9     1  0.0000000  0.6276000  3
      6      5      8     10     1  0.0000000  0.6276000  3
      5      8     11     13     1  0.0000000  0.6694400  3
      5      8     11     12     1  0.0000000  0.6694400  3
      4      1      5      8     1  0.0000000  0.6694400  3
      4      1      5      7     1  0.0000000  0.6276000  3
      4      1      5      6     1  0.0000000  0.6276000  3
      3      1      5      8     1  0.0000000  0.6694400  3
      3      1      5      7     1  0.0000000  0.6276000  3
      3      1      5      6     1  0.0000000  0.6276000  3
      2      1      5      8     1  0.0000000  0.6694400  3
      2      1      5      7     1  0.0000000  0.6276000  3
      2      1      5      6     1  0.0000000  0.6276000  3
      1      5      8      9     1  0.0000000  0.6694400  3
      1      5      8     10     1  0.0000000  0.6694400  3
     89     88     86    132     1  0.0000000  1.0460000  1
     89     88     86    132     1  0.0000000  0.6694400  3
     88     86    132    133     1  0.0000000  0.0000000  2
     87     86     88     89     1  0.0000000  2.0920000  3
     87     86    132    130     1  0.0000000  0.0000000  2
     87     86    132    133     1  0.0000000  0.0000000  2
     86    132    130    131     1  180.0000771  27.8236000  2
     83     82     53     86     1  0.0000000  0.0000000  2
     83     82     84     85     1  180.0000771  10.4600000  2
     82     53     86     87     1  0.0000000  0.6527040  3
     75     72     67     76     1  0.0000000  0.6527040  3
     74     72     67     76     1  0.0000000  0.6527040  3
     73     72     67     76     1  0.0000000  0.6527040  3
     72     67     76     79     1  0.0000000  0.6527040  3
     72     67     76     77     1  0.0000000  0.6527040  3
     72     67     76     78     1  0.0000000  0.6527040  3
     71     68     67     72     1  0.0000000  0.6527040  3
     71     68     67     76     1  0.0000000  0.6527040  3
     70     68     67     72     1  0.0000000  0.6527040  3
     70     68     67     76     1  0.0000000  0.6527040  3
     69     68     67     72     1  0.0000000  0.6527040  3
     69     68     67     76     1  0.0000000  0.6527040  3
     68     67     72     75     1  0.0000000  0.6527040  3
     68     67     72     74     1  0.0000000  0.6527040  3
     68     67     72     73     1  0.0000000  0.6527040  3
     68     67     76     79     1  0.0000000  0.6527040  3
     68     67     76     77     1  0.0000000  0.6527040  3
     68     67     76     78     1  0.0000000  0.6527040  3
     66     64     67     72     1  0.0000000  0.6527040  3
     66     64     67     76     1  0.0000000  0.6527040  3
     66     64     67     68     1  0.0000000  0.6527040  3
     65     64     67     72     1  0.0000000  0.6527040  3
     65     64     67     76     1  0.0000000  0.6527040  3
     65     64     67     68     1  0.0000000  0.6527040  3
     64     67     72     75     1  0.0000000  0.6527040  3
     64     67     72     74     1  0.0000000  0.6527040  3
     64     67     72     73     1  0.0000000  0.6527040  3
     64     67     76     79     1  0.0000000  0.6527040  3
     64     67     76     77     1  0.0000000  0.6527040  3
     64     67     76     78     1  0.0000000  0.6527040  3
     64     67     68     69     1  0.0000000  0.6527040  3
     64     67     68     70     1  0.0000000  0.6527040  3
     64     67     68     71     1  0.0000000  0.6527040  3
     63     61     64     67     1  0.0000000  0.6527040  3
     63     61     64     65     1  0.0000000  0.6527040  3
     63     61     64     66     1  0.0000000  0.6527040  3
     62     61     64     67     1  0.0000000  0.6527040  3
     62     61     64     65     1  0.0000000  0.6527040  3
     62     61     64     66     1  0.0000000  0.6527040  3
     60     61     64     65     1  0.0000000  0.6527040  3
     60     61     64     66     1  0.0000000  0.6527040  3
     59     60     61     63     1  0.0000000  0.0000000  1
     59     60     61     63     1  0.0000000  0.0000000  2
     59     60     61     63     1  0.0000000  1.6024720  3
     59     60     61     63     1  0.0000000  0.0000000  4
     59     60     61     63     1  0.0000000  0.0000000  5
     59     60     61     62     1  0.0000000  0.0000000  1
     59     60     61     62     1  0.0000000  0.0000000  2
     59     60     61     62     1  0.0000000  1.6024720  3
     59     60     61     62     1  0.0000000  0.0000000  4
     59     60     61     62     1  0.0000000  0.0000000  5
     57     55     53     82     1  0.0000000  0.6527040  3
     57     55     53     86     1  0.0000000  0.6527040  3
     57     55     58     59     1  0.0000000  0.0000000  1
     57     55     58     59     1  0.0000000  0.0000000  2
     57     55     58     59     1  0.0000000  1.6024720  3
     57     55     58     59     1  0.0000000  0.0000000  4
     57     55     58     59     1  0.0000000  0.0000000  5
     56     55     53     82     1  0.0000000  0.6527040  3
     56     55     53     86     1  0.0000000  0.6527040  3
     56     55     58     59     1  0.0000000  0.0000000  1
     56     55     58     59     1  0.0000000  0.0000000  2
     56     55     58     59     1  0.0000000  1.6024720  3
     56     55     58     59     1  0.0000000  0.0000000  4
     56     55     58     59     1  0.0000000  0.0000000  5
     55     53     82     83     1  0.0000000  0.0000000  2
     55     53     86     87     1  0.0000000  0.6527040  3
     54     53     82     84     1  0.0000000  0.0000000  2
     54     53     82     83     1  0.0000000  0.0000000  2
     54     53     55     58     1  0.0000000  1.0460000  1
     54     53     55     58     1  0.0000000  0.0000000  3
     54     53     55     57     1  0.0000000  0.6527040  3
     54     53     55     56     1  0.0000000  0.6527040  3
     54     53     86     87     1  0.0000000  0.6527040  3
     54     53     86     88     1  0.0000000  1.0460000  1
     54     53     86     88     1  0.0000000  0.0000000  3
     54     53     86    132     1  0.0000000  0.6510304  3
     53     86     88     89     1  0.0000000  1.0460000  1
     53     86     88     89     1  0.0000000  0.6694400  3
     53     86    132    133     1  0.0000000  0.0000000  2
    131    130    132    133     1  180.0000771  27.8236000  2
    129    127    130    132     1  0.0000000  4.8116000  1
    129    127    130    132     1  180.0000771  1.5899200  3
    129    127    130    131     1  0.0000000  0.0000000  2
    128    127    130    132     1  0.0000000  4.8116000  1
    128    127    130    132     1  180.0000771  1.5899200  3
    128    127    130    131     1  0.0000000  0.0000000  2
    127    130    132    133     1  180.0000771  27.8236000  2
    126    124    127    130     1  0.0000000  0.6510304  3
    126    124    127    128     1  0.0000000  0.6276000  3
    126    124    127    129     1  0.0000000  0.6276000  3
    125    124    127    130     1  0.0000000  0.6510304  3
    125    124    127    128     1  0.0000000  0.6276000  3
    125    124    127    129     1  0.0000000  0.6276000  3
    124    127    130    131     1  0.0000000  0.0000000  2
    123    121    124    127     1  0.0000000  0.6694400  3
    123    121    124    126     1  0.0000000  0.6276000  3
    123    121    124    125     1  0.0000000  0.6276000  3
    122    121    124    127     1  0.0000000  0.6694400  3
    122    121    124    126     1  0.0000000  0.6276000  3
    122    121    124    125     1  0.0000000  0.6276000  3
    121    124    127    128     1  0.0000000  0.6694400  3
    121    124    127    129     1  0.0000000  0.6694400  3
    120    118    121    124     1  0.0000000  0.6694400  3
    120    118    121    122     1  0.0000000  0.6276000  3
    120    118    121    123     1  0.0000000  0.6276000  3
    119    118    121    124     1  0.0000000  0.6694400  3
    119    118    121    122     1  0.0000000  0.6276000  3
    119    118    121    123     1  0.0000000  0.6276000  3
    118    121    124    126     1  0.0000000  0.6694400  3
    118    121    124    125     1  0.0000000  0.6694400  3
    117    115    118    121     1  0.0000000  0.6694400  3
    117    115    118    120     1  0.0000000  0.6276000  3
    117    115    118    119     1  0.0000000  0.6276000  3
    116    115    118    121     1  0.0000000  0.6694400  3
    116    115    118    120     1  0.0000000  0.6276000  3
    116    115    118    119     1  0.0000000  0.6276000  3
    115    118    121    122     1  0.0000000  0.6694400  3
    115    118    121    123     1  0.0000000  0.6694400  3
    114    112    115    118     1  0.0000000  0.6694400  3
    114    112    115    117     1  0.0000000  0.6276000  3
    114    112    115    116     1  0.0000000  0.6276000  3
    113    112    115    118     1  0.0000000  0.6694400  3
    113    112    115    117     1  0.0000000  0.6276000  3
    113    112    115    116     1  0.0000000  0.6276000  3
    112    115    118    120     1  0.0000000  0.6694400  3
    112    115    118    119     1  0.0000000  0.6694400  3
    111    109    112    115     1  0.0000000  0.6694400  3
    111    109    112    113     1  0.0000000  0.6276000  3
    111    109    112    114     1  0.0000000  0.6276000  3
    110    109    112    115     1  0.0000000  0.6694400  3
    110    109    112    113     1  0.0000000  0.6276000  3
    110    109    112    114     1  0.0000000  0.6276000  3
    109    112    115    117     1  0.0000000  0.6694400  3
    109    112    115    116     1  0.0000000  0.6694400  3
    108    106    109    112     1  0.0000000  0.6694400  3
    108    106    109    110     1  0.0000000  0.6276000  3
    108    106    109    111     1  0.0000000  0.6276000  3
    107    106    109    112     1  0.0000000  0.6694400  3
    107    106    109    110     1  0.0000000  0.6276000  3
    107    106    109    111     1  0.0000000  0.6276000  3
    106    109    112    113     1  0.0000000  0.6694400  3
    106    109    112    114     1  0.0000000  0.6694400  3
    105    103    106    109     1  0.0000000  0.6694400  3
    105    103    106    108     1  0.0000000  0.6276000  3
    105    103    106    107     1  0.0000000  0.6276000  3
    104    103    106    109     1  0.0000000  0.6694400  3
    104    103    106    108     1  0.0000000  0.6276000  3
    104    103    106    107     1  0.0000000  0.6276000  3
    103    106    109    110     1  0.0000000  0.6694400  3
    103    106    109    111     1  0.0000000  0.6694400  3
    102    100    103    106     1  0.0000000  0.6694400  3
    102    100    103    105     1  0.0000000  0.6276000  3
    102    100    103    104     1  0.0000000  0.6276000  3
    101    100    103    106     1  0.0000000  0.6694400  3
    101    100    103    105     1  0.0000000  0.6276000  3
    101    100    103    104     1  0.0000000  0.6276000  3
    100    103    106    108     1  0.0000000  0.6694400  3
    100    103    106    107     1  0.0000000  0.6694400  3
     99     97    100    103     1  0.0000000  0.6694400  3
     99     97    100    102     1  0.0000000  0.6276000  3
     99     97    100    101     1  0.0000000  0.6276000  3
     98     97    100    103     1  0.0000000  0.6694400  3
     98     97    100    102     1  0.0000000  0.6276000  3
     98     97    100    101     1  0.0000000  0.6276000  3
     97    100    103    105     1  0.0000000  0.6694400  3
     97    100    103    104     1  0.0000000  0.6694400  3
     96     94     97    100     1  0.0000000  0.6694400  3
     96     94     97     98     1  0.0000000  0.6276000  3
     96     94     97     99     1  0.0000000  0.6276000  3
     95     94     97    100     1  0.0000000  0.6694400  3
     95     94     97     98     1  0.0000000  0.6276000  3
     95     94     97     99     1  0.0000000  0.6276000  3
     94     97    100    102     1  0.0000000  0.6694400  3
     94     97    100    101     1  0.0000000  0.6694400  3
     93     90     94     97     1  0.0000000  0.6694400  3
     93     90     94     96     1  0.0000000  0.6276000  3
     93     90     94     95     1  0.0000000  0.6276000  3
     92     90     94     97     1  0.0000000  0.6694400  3
     92     90     94     96     1  0.0000000  0.6276000  3
     92     90     94     95     1  0.0000000  0.6276000  3
     91     90     94     97     1  0.0000000  0.6694400  3
     91     90     94     96     1  0.0000000  0.6276000  3
     91     90     94     95     1  0.0000000  0.6276000  3
     90     94     97     98     1  0.0000000  0.6694400  3
     90     94     97     99     1  0.0000000  0.6694400  3
     53     84     82     83     4  180.0000771  4.6024000  2
     86    130    132    133     4  180.0000771  4.6024000  2
    132    127    130    131     4  180.0000771  4.6024000  2
