; Exact Amber Lipid21 v1.0 topology converted by ParmEd
; Explicit [pairs] preserve Lipid21-specific 1-4 scaling.
; Conversion contract: amber-explicit-pairs-v2 (independent of parent defaults).

[ moleculetype ]
; Name nrexcl
SSM 3

[ atoms ]
; nr type resnr residue atom cgnr charge mass
1 L21_cD 1 SSM C18F 1 -0.12006900 12.010000
2 L21_hL 1 SSM H18F 2 0.02793800 1.008000
3 L21_hL 1 SSM H18G 3 0.02793800 1.008000
4 L21_hL 1 SSM H18H 4 0.02793800 1.008000
5 L21_cD 1 SSM C17F 5 0.02066500 12.010000
6 L21_hL 1 SSM H17F 6 0.00848300 1.008000
7 L21_hL 1 SSM H17G 7 0.00848300 1.008000
8 L21_cD 1 SSM C16F 8 -0.02765400 12.010000
9 L21_hL 1 SSM H16F 9 0.01562700 1.008000
10 L21_hL 1 SSM H16G 10 0.01562700 1.008000
11 L21_cD 1 SSM C15F 11 -0.03244400 12.010000
12 L21_hL 1 SSM H15F 12 0.01025300 1.008000
13 L21_hL 1 SSM H15G 13 0.01025300 1.008000
14 L21_cD 1 SSM C14F 14 -0.01348900 12.010000
15 L21_hL 1 SSM H14F 15 0.01007300 1.008000
16 L21_hL 1 SSM H14G 16 0.01007300 1.008000
17 L21_cD 1 SSM C13F 17 -0.01159000 12.010000
18 L21_hL 1 SSM H13F 18 0.00602200 1.008000
19 L21_hL 1 SSM H13G 19 0.00602200 1.008000
20 L21_cD 1 SSM C12F 20 -0.01915300 12.010000
21 L21_hL 1 SSM H12F 21 0.00819800 1.008000
22 L21_hL 1 SSM H12G 22 0.00819800 1.008000
23 L21_cD 1 SSM C11F 23 -0.01709300 12.010000
24 L21_hL 1 SSM H11F 24 0.01020600 1.008000
25 L21_hL 1 SSM H11G 25 0.01020600 1.008000
26 L21_cD 1 SSM C10F 26 -0.02641800 12.010000
27 L21_hL 1 SSM H10F 27 0.01082500 1.008000
28 L21_hL 1 SSM H10G 28 0.01082500 1.008000
29 L21_cD 1 SSM C9F 29 -0.01799700 12.010000
30 L21_hL 1 SSM H9F 30 0.00959500 1.008000
31 L21_hL 1 SSM H9G 31 0.00959500 1.008000
32 L21_cD 1 SSM C8F 32 -0.01462300 12.010000
33 L21_hL 1 SSM H8F 33 0.00732600 1.008000
34 L21_hL 1 SSM H8G 34 0.00732600 1.008000
35 L21_cD 1 SSM C7F 35 -0.01946900 12.010000
36 L21_hL 1 SSM H7F 36 0.00929200 1.008000
37 L21_hL 1 SSM H7G 37 0.00929200 1.008000
38 L21_cD 1 SSM C6F 38 -0.03762700 12.010000
39 L21_hL 1 SSM H6F 39 0.01774000 1.008000
40 L21_hL 1 SSM H6G 40 0.01774000 1.008000
41 L21_cD 1 SSM C5F 41 -0.01344300 12.010000
42 L21_hL 1 SSM H5F 42 0.00819100 1.008000
43 L21_hL 1 SSM H5G 43 0.00819100 1.008000
44 L21_cD 1 SSM C4F 44 -0.05979200 12.010000
45 L21_hL 1 SSM H4F 45 0.02424100 1.008000
46 L21_hL 1 SSM H4G 46 0.02424100 1.008000
47 L21_cD 1 SSM C3F 47 -0.00012800 12.010000
48 L21_hL 1 SSM H3F 48 0.01388600 1.008000
49 L21_hL 1 SSM H3G 49 0.01388600 1.008000
50 L21_cD 1 SSM C2F 50 -0.11702000 12.010000
51 L21_hL 1 SSM H2F 51 0.05180700 1.008000
52 L21_hL 1 SSM H2G 52 0.05180700 1.008000
53 L21_cA 1 SSM C2 53 0.01273900 12.010000
54 L21_hE 1 SSM HX 54 0.08745500 1.008000
55 L21_cA 1 SSM C3 55 0.17662500 12.010000
56 L21_hE 1 SSM HA 56 0.05162200 1.008000
57 L21_hE 1 SSM HB 57 0.05162200 1.008000
58 L21_oT 1 SSM O31 58 -0.53335600 16.000000
59 L21_pA 1 SSM P31 59 1.32476200 30.970000
60 L21_oT 1 SSM O32 60 -0.45930800 16.000000
61 L21_cA 1 SSM C31 61 0.28244700 12.010000
62 L21_hE 1 SSM H1A 62 0.04988600 1.008000
63 L21_hE 1 SSM H1B 63 0.04988600 1.008000
64 L21_cA 1 SSM C32 64 -0.49366500 12.010000
65 L21_hX 1 SSM H2A 65 0.23384000 1.008000
66 L21_hX 1 SSM H2B 66 0.23384000 1.008000
67 L21_nA 1 SSM N31 67 0.24527500 14.010000
68 L21_cA 1 SSM C33 68 -0.38661100 12.010000
69 L21_hX 1 SSM H3A 69 0.19156900 1.008000
70 L21_hX 1 SSM H3B 70 0.19156900 1.008000
71 L21_hX 1 SSM H3C 71 0.19156900 1.008000
72 L21_cA 1 SSM C34 72 -0.38661100 12.010000
73 L21_hX 1 SSM H4A 73 0.19156900 1.008000
74 L21_hX 1 SSM H4B 74 0.19156900 1.008000
75 L21_hX 1 SSM H4C 75 0.19156900 1.008000
76 L21_cA 1 SSM C35 76 -0.38661100 12.010000
77 L21_hX 1 SSM H5A 77 0.19156900 1.008000
78 L21_hX 1 SSM H5B 78 0.19156900 1.008000
79 L21_hX 1 SSM H5C 79 0.19156900 1.008000
80 L21_oP 1 SSM O33 80 -0.88478900 16.000000
81 L21_oP 1 SSM O34 81 -0.88478900 16.000000
82 L21_nN 1 SSM N11 82 -0.38841000 14.010000
83 L21_hN 1 SSM H11 83 0.27359200 1.008000
84 L21_cC 1 SSM C11 84 0.61723100 12.010000
85 L21_oC 1 SSM O12 85 -0.64530300 16.000000
86 L21_cA 1 SSM C1 86 0.32309200 12.010000
87 L21_hE 1 SSM HR 87 0.06920800 1.008000
88 L21_oH 1 SSM O22 88 -0.72303300 16.000000
89 L21_hO 1 SSM H22 89 0.43496400 1.008000
90 L21_cD 1 SSM C18S 90 -0.19999900 12.010000
91 L21_hL 1 SSM H18S 91 0.04947100 1.008000
92 L21_hL 1 SSM H18T 92 0.04947100 1.008000
93 L21_hL 1 SSM H18U 93 0.04947100 1.008000
94 L21_cD 1 SSM C17S 94 -0.04678100 12.010000
95 L21_hL 1 SSM H17S 95 0.02648400 1.008000
96 L21_hL 1 SSM H17T 96 0.02648400 1.008000
97 L21_cD 1 SSM C16S 97 0.04464800 12.010000
98 L21_hL 1 SSM H16S 98 0.01097000 1.008000
99 L21_hL 1 SSM H16T 99 0.01097000 1.008000
100 L21_cD 1 SSM C15S 100 -0.11922500 12.010000
101 L21_hL 1 SSM H15S 101 0.04033000 1.008000
102 L21_hL 1 SSM H15T 102 0.04033000 1.008000
103 L21_cD 1 SSM C14S 103 0.00104800 12.010000
104 L21_hL 1 SSM H14S 104 0.01693500 1.008000
105 L21_hL 1 SSM H14T 105 0.01693500 1.008000
106 L21_cD 1 SSM C13S 106 -0.07941700 12.010000
107 L21_hL 1 SSM H13S 107 0.02350200 1.008000
108 L21_hL 1 SSM H13T 108 0.02350200 1.008000
109 L21_cD 1 SSM C12S 109 -0.06637200 12.010000
110 L21_hL 1 SSM H12S 110 0.02172300 1.008000
111 L21_hL 1 SSM H12T 111 0.02172300 1.008000
112 L21_cD 1 SSM C11S 112 0.05335200 12.010000
113 L21_hL 1 SSM H11S 113 0.02020000 1.008000
114 L21_hL 1 SSM H11T 114 0.02020000 1.008000
115 L21_cD 1 SSM C10S 115 -0.18788900 12.010000
116 L21_hL 1 SSM H10S 116 0.04690900 1.008000
117 L21_hL 1 SSM H10T 117 0.04690900 1.008000
118 L21_cD 1 SSM C9S 118 0.04928800 12.010000
119 L21_hL 1 SSM H9S 119 0.00604500 1.008000
120 L21_hL 1 SSM H9T 120 0.00604500 1.008000
121 L21_cD 1 SSM C8S 121 -0.01299700 12.010000
122 L21_hL 1 SSM H8S 122 0.00322300 1.008000
123 L21_hL 1 SSM H8T 123 0.00322300 1.008000
124 L21_cD 1 SSM C7S 124 0.09317100 12.010000
125 L21_hL 1 SSM H7S 125 -0.01169000 1.008000
126 L21_hL 1 SSM H7T 126 -0.01169000 1.008000
127 L21_cD 1 SSM C6S 127 -0.25813800 12.010000
128 L21_hL 1 SSM H6S 128 0.07684300 1.008000
129 L21_hL 1 SSM H6T 129 0.07684300 1.008000
130 L21_cB 1 SSM C5S 130 0.02829000 12.010000
131 L21_hB 1 SSM H5S 131 0.11628100 1.008000
132 L21_cB 1 SSM C4S 132 -0.34188900 12.010000
133 L21_hB 1 SSM H4S 133 0.14555000 1.008000

[ bonds ]
;    ai     aj funct         c0         c1         c2         c3
     50     84     1   0.15080 274721.440000
     47     50     1   0.15350 253634.080000
     44     47     1   0.15350 253634.080000
     41     44     1   0.15350 253634.080000
     38     41     1   0.15350 253634.080000
     35     38     1   0.15350 253634.080000
     32     35     1   0.15350 253634.080000
     29     32     1   0.15350 253634.080000
     26     29     1   0.15350 253634.080000
     23     26     1   0.15350 253634.080000
     20     23     1   0.15350 253634.080000
     17     20     1   0.15350 253634.080000
     14     17     1   0.15350 253634.080000
     11     14     1   0.15350 253634.080000
      8     11     1   0.15350 253634.080000
      5      8     1   0.15350 253634.080000
      1      5     1   0.15350 253634.080000
     86     88     1   0.14260 262838.880000
     86    132     1   0.15080 274721.440000
     84     85     1   0.12140 542246.400000
     82     84     1   0.13450 400157.760000
     67     72     1   0.14990 245684.480000
     67     76     1   0.14990 245684.480000
     67     68     1   0.14990 245684.480000
     64     67     1   0.14990 245684.480000
     61     64     1   0.15350 253634.080000
     60     61     1   0.14390 252295.200000
     59     60     1   0.16100 192464.000000
     59     80     1   0.14800 439320.000000
     59     81     1   0.14800 439320.000000
     58     59     1   0.16100 192464.000000
     55     58     1   0.14390 252295.200000
     53     82     1   0.14600 276646.080000
     53     55     1   0.15350 253634.080000
     53     86     1   0.15350 253634.080000
    130    132     1   0.13240 493460.960000
    127    130     1   0.15080 274721.440000
    124    127     1   0.15350 253634.080000
    121    124     1   0.15350 253634.080000
    118    121     1   0.15350 253634.080000
    115    118     1   0.15350 253634.080000
    112    115     1   0.15350 253634.080000
    109    112     1   0.15350 253634.080000
    106    109     1   0.15350 253634.080000
    103    106     1   0.15350 253634.080000
    100    103     1   0.15350 253634.080000
     97    100     1   0.15350 253634.080000
     94     97     1   0.15350 253634.080000
     90     94     1   0.15350 253634.080000
     50     51     1   0.10920 282252.640000
     50     52     1   0.10920 282252.640000
     47     49     1   0.10920 282252.640000
     47     48     1   0.10920 282252.640000
     44     45     1   0.10920 282252.640000
     44     46     1   0.10920 282252.640000
     41     43     1   0.10920 282252.640000
     41     42     1   0.10920 282252.640000
     38     39     1   0.10920 282252.640000
     38     40     1   0.10920 282252.640000
     35     37     1   0.10920 282252.640000
     35     36     1   0.10920 282252.640000
     32     33     1   0.10920 282252.640000
     32     34     1   0.10920 282252.640000
     29     31     1   0.10920 282252.640000
     29     30     1   0.10920 282252.640000
     26     27     1   0.10920 282252.640000
     26     28     1   0.10920 282252.640000
     23     25     1   0.10920 282252.640000
     23     24     1   0.10920 282252.640000
     20     21     1   0.10920 282252.640000
     20     22     1   0.10920 282252.640000
     17     19     1   0.10920 282252.640000
     17     18     1   0.10920 282252.640000
     14     15     1   0.10920 282252.640000
     14     16     1   0.10920 282252.640000
     11     13     1   0.10920 282252.640000
     11     12     1   0.10920 282252.640000
      8      9     1   0.10920 282252.640000
      8     10     1   0.10920 282252.640000
      5      7     1   0.10920 282252.640000
      5      6     1   0.10920 282252.640000
      1      4     1   0.10920 282252.640000
      1      3     1   0.10920 282252.640000
      1      2     1   0.10920 282252.640000
     88     89     1   0.09740 309281.280000
     86     87     1   0.10930 281081.120000
     82     83     1   0.10090 343255.360000
     76     79     1   0.10910 283424.160000
     76     77     1   0.10910 283424.160000
     76     78     1   0.10910 283424.160000
     72     75     1   0.10910 283424.160000
     72     74     1   0.10910 283424.160000
     72     73     1   0.10910 283424.160000
     68     69     1   0.10910 283424.160000
     68     70     1   0.10910 283424.160000
     68     71     1   0.10910 283424.160000
     64     65     1   0.10910 283424.160000
     64     66     1   0.10910 283424.160000
     61     63     1   0.10930 281081.120000
     61     62     1   0.10930 281081.120000
     55     57     1   0.10930 281081.120000
     55     56     1   0.10930 281081.120000
     53     54     1   0.10930 281081.120000
    132    133     1   0.10870 288110.240000
    130    131     1   0.10870 288110.240000
    127    128     1   0.10920 282252.640000
    127    129     1   0.10920 282252.640000
    124    126     1   0.10920 282252.640000
    124    125     1   0.10920 282252.640000
    121    122     1   0.10920 282252.640000
    121    123     1   0.10920 282252.640000
    118    120     1   0.10920 282252.640000
    118    119     1   0.10920 282252.640000
    115    117     1   0.10920 282252.640000
    115    116     1   0.10920 282252.640000
    112    113     1   0.10920 282252.640000
    112    114     1   0.10920 282252.640000
    109    110     1   0.10920 282252.640000
    109    111     1   0.10920 282252.640000
    106    108     1   0.10920 282252.640000
    106    107     1   0.10920 282252.640000
    103    105     1   0.10920 282252.640000
    103    104     1   0.10920 282252.640000
    100    102     1   0.10920 282252.640000
    100    101     1   0.10920 282252.640000
     97     98     1   0.10920 282252.640000
     97     99     1   0.10920 282252.640000
     94     96     1   0.10920 282252.640000
     94     95     1   0.10920 282252.640000
     90     92     1   0.10920 282252.640000
     90     91     1   0.10920 282252.640000
     90     93     1   0.10920 282252.640000


[ pairs ]
; ai aj funct fudgeQQ qi qj sigma epsilon; source-specific LJ and charge scaling
1 9 2 0.83333333333333 -0.12006900007134 0.015626999994512 0.30005468824211 0.069194303392389
1 10 2 0.83333333333333 -0.12006900007134 0.015626999994512 0.30005468824211 0.069194303392389
1 11 2 0.83333333333333 -0.12006900007134 -0.032443999989024 0.33996695084507 0.076288266607901
2 6 2 0.83333333333333 0.027937999978049 0.0084830000054878 0.26014242576773 0.020919999936173
2 7 2 0.83333333333333 0.027937999978049 0.0084830000054878 0.26014242576773 0.020919999936173
2 8 2 0.83333333333333 0.027937999978049 -0.027653999989024 0.30005468824211 0.069194303392389
3 6 2 0.83333333333333 0.027937999978049 0.0084830000054878 0.26014242576773 0.020919999936173
3 7 2 0.83333333333333 0.027937999978049 0.0084830000054878 0.26014242576773 0.020919999936173
3 8 2 0.83333333333333 0.027937999978049 -0.027653999989024 0.30005468824211 0.069194303392389
4 6 2 0.83333333333333 0.027937999978049 0.0084830000054878 0.26014242576773 0.020919999936173
4 7 2 0.83333333333333 0.027937999978049 0.0084830000054878 0.26014242576773 0.020919999936173
4 8 2 0.83333333333333 0.027937999978049 -0.027653999989024 0.30005468824211 0.069194303392389
5 12 2 0.83333333333333 0.020665000027439 0.010253000005488 0.30005468824211 0.069194303392389
5 13 2 0.83333333333333 0.020665000027439 0.010253000005488 0.30005468824211 0.069194303392389
5 14 2 0.83333333333333 0.020665000027439 -0.013489000016463 0.33996695084507 0.076288266607901
6 9 2 0.83333333333333 0.0084830000054878 0.015626999994512 0.26014242576773 0.020919999936173
6 10 2 0.83333333333333 0.0084830000054878 0.015626999994512 0.26014242576773 0.020919999936173
6 11 2 0.83333333333333 0.0084830000054878 -0.032443999989024 0.30005468824211 0.069194303392389
7 9 2 0.83333333333333 0.0084830000054878 0.015626999994512 0.26014242576773 0.020919999936173
7 10 2 0.83333333333333 0.0084830000054878 0.015626999994512 0.26014242576773 0.020919999936173
7 11 2 0.83333333333333 0.0084830000054878 -0.032443999989024 0.30005468824211 0.069194303392389
8 15 2 0.83333333333333 -0.027653999989024 0.010073000005488 0.30005468824211 0.069194303392389
8 16 2 0.83333333333333 -0.027653999989024 0.010073000005488 0.30005468824211 0.069194303392389
8 17 2 0.83333333333333 -0.027653999989024 -0.01159 0.33996695084507 0.076288266607901
9 12 2 0.83333333333333 0.015626999994512 0.010253000005488 0.26014242576773 0.020919999936173
9 13 2 0.83333333333333 0.015626999994512 0.010253000005488 0.26014242576773 0.020919999936173
9 14 2 0.83333333333333 0.015626999994512 -0.013489000016463 0.30005468824211 0.069194303392389
10 12 2 0.83333333333333 0.015626999994512 0.010253000005488 0.26014242576773 0.020919999936173
10 13 2 0.83333333333333 0.015626999994512 0.010253000005488 0.26014242576773 0.020919999936173
10 14 2 0.83333333333333 0.015626999994512 -0.013489000016463 0.30005468824211 0.069194303392389
11 18 2 0.83333333333333 -0.032443999989024 0.0060220000219511 0.30005468824211 0.069194303392389
11 19 2 0.83333333333333 -0.032443999989024 0.0060220000219511 0.30005468824211 0.069194303392389
11 20 2 0.83333333333333 -0.032443999989024 -0.019153000005488 0.33996695084507 0.076288266607901
12 15 2 0.83333333333333 0.010253000005488 0.010073000005488 0.26014242576773 0.020919999936173
12 16 2 0.83333333333333 0.010253000005488 0.010073000005488 0.26014242576773 0.020919999936173
12 17 2 0.83333333333333 0.010253000005488 -0.01159 0.30005468824211 0.069194303392389
13 15 2 0.83333333333333 0.010253000005488 0.010073000005488 0.26014242576773 0.020919999936173
13 16 2 0.83333333333333 0.010253000005488 0.010073000005488 0.26014242576773 0.020919999936173
13 17 2 0.83333333333333 0.010253000005488 -0.01159 0.30005468824211 0.069194303392389
14 21 2 0.83333333333333 -0.013489000016463 0.0081979999780489 0.30005468824211 0.069194303392389
14 22 2 0.83333333333333 -0.013489000016463 0.0081979999780489 0.30005468824211 0.069194303392389
14 23 2 0.83333333333333 -0.013489000016463 -0.017093000005488 0.33996695084507 0.076288266607901
15 18 2 0.83333333333333 0.010073000005488 0.0060220000219511 0.26014242576773 0.020919999936173
15 19 2 0.83333333333333 0.010073000005488 0.0060220000219511 0.26014242576773 0.020919999936173
15 20 2 0.83333333333333 0.010073000005488 -0.019153000005488 0.30005468824211 0.069194303392389
16 18 2 0.83333333333333 0.010073000005488 0.0060220000219511 0.26014242576773 0.020919999936173
16 19 2 0.83333333333333 0.010073000005488 0.0060220000219511 0.26014242576773 0.020919999936173
16 20 2 0.83333333333333 0.010073000005488 -0.019153000005488 0.30005468824211 0.069194303392389
17 24 2 0.83333333333333 -0.01159 0.010206000010976 0.30005468824211 0.069194303392389
17 25 2 0.83333333333333 -0.01159 0.010206000010976 0.30005468824211 0.069194303392389
17 26 2 0.83333333333333 -0.01159 -0.026417999978049 0.33996695084507 0.076288266607901
18 21 2 0.83333333333333 0.0060220000219511 0.0081979999780489 0.26014242576773 0.020919999936173
18 22 2 0.83333333333333 0.0060220000219511 0.0081979999780489 0.26014242576773 0.020919999936173
18 23 2 0.83333333333333 0.0060220000219511 -0.017093000005488 0.30005468824211 0.069194303392389
19 21 2 0.83333333333333 0.0060220000219511 0.0081979999780489 0.26014242576773 0.020919999936173
19 22 2 0.83333333333333 0.0060220000219511 0.0081979999780489 0.26014242576773 0.020919999936173
19 23 2 0.83333333333333 0.0060220000219511 -0.017093000005488 0.30005468824211 0.069194303392389
20 27 2 0.83333333333333 -0.019153000005488 0.010824999972561 0.30005468824211 0.069194303392389
20 28 2 0.83333333333333 -0.019153000005488 0.010824999972561 0.30005468824211 0.069194303392389
20 29 2 0.83333333333333 -0.019153000005488 -0.017996999994512 0.33996695084507 0.076288266607901
21 24 2 0.83333333333333 0.0081979999780489 0.010206000010976 0.26014242576773 0.020919999936173
21 25 2 0.83333333333333 0.0081979999780489 0.010206000010976 0.26014242576773 0.020919999936173
21 26 2 0.83333333333333 0.0081979999780489 -0.026417999978049 0.30005468824211 0.069194303392389
22 24 2 0.83333333333333 0.0081979999780489 0.010206000010976 0.26014242576773 0.020919999936173
22 25 2 0.83333333333333 0.0081979999780489 0.010206000010976 0.26014242576773 0.020919999936173
22 26 2 0.83333333333333 0.0081979999780489 -0.026417999978049 0.30005468824211 0.069194303392389
23 30 2 0.83333333333333 -0.017093000005488 0.0095950000274389 0.30005468824211 0.069194303392389
23 31 2 0.83333333333333 -0.017093000005488 0.0095950000274389 0.30005468824211 0.069194303392389
23 32 2 0.83333333333333 -0.017093000005488 -0.014623000005488 0.33996695084507 0.076288266607901
24 27 2 0.83333333333333 0.010206000010976 0.010824999972561 0.26014242576773 0.020919999936173
24 28 2 0.83333333333333 0.010206000010976 0.010824999972561 0.26014242576773 0.020919999936173
24 29 2 0.83333333333333 0.010206000010976 -0.017996999994512 0.30005468824211 0.069194303392389
25 27 2 0.83333333333333 0.010206000010976 0.010824999972561 0.26014242576773 0.020919999936173
25 28 2 0.83333333333333 0.010206000010976 0.010824999972561 0.26014242576773 0.020919999936173
25 29 2 0.83333333333333 0.010206000010976 -0.017996999994512 0.30005468824211 0.069194303392389
26 33 2 0.83333333333333 -0.026417999978049 0.0073260000109756 0.30005468824211 0.069194303392389
26 34 2 0.83333333333333 -0.026417999978049 0.0073260000109756 0.30005468824211 0.069194303392389
26 35 2 0.83333333333333 -0.026417999978049 -0.019469000016463 0.33996695084507 0.076288266607901
27 30 2 0.83333333333333 0.010824999972561 0.0095950000274389 0.26014242576773 0.020919999936173
27 31 2 0.83333333333333 0.010824999972561 0.0095950000274389 0.26014242576773 0.020919999936173
27 32 2 0.83333333333333 0.010824999972561 -0.014623000005488 0.30005468824211 0.069194303392389
28 30 2 0.83333333333333 0.010824999972561 0.0095950000274389 0.26014242576773 0.020919999936173
28 31 2 0.83333333333333 0.010824999972561 0.0095950000274389 0.26014242576773 0.020919999936173
28 32 2 0.83333333333333 0.010824999972561 -0.014623000005488 0.30005468824211 0.069194303392389
29 36 2 0.83333333333333 -0.017996999994512 0.0092920000219511 0.30005468824211 0.069194303392389
29 37 2 0.83333333333333 -0.017996999994512 0.0092920000219511 0.30005468824211 0.069194303392389
29 38 2 0.83333333333333 -0.017996999994512 -0.037626999994512 0.33996695084507 0.076288266607901
30 33 2 0.83333333333333 0.0095950000274389 0.0073260000109756 0.26014242576773 0.020919999936173
30 34 2 0.83333333333333 0.0095950000274389 0.0073260000109756 0.26014242576773 0.020919999936173
30 35 2 0.83333333333333 0.0095950000274389 -0.019469000016463 0.30005468824211 0.069194303392389
31 33 2 0.83333333333333 0.0095950000274389 0.0073260000109756 0.26014242576773 0.020919999936173
31 34 2 0.83333333333333 0.0095950000274389 0.0073260000109756 0.26014242576773 0.020919999936173
31 35 2 0.83333333333333 0.0095950000274389 -0.019469000016463 0.30005468824211 0.069194303392389
32 39 2 0.83333333333333 -0.014623000005488 0.01774 0.30005468824211 0.069194303392389
32 40 2 0.83333333333333 -0.014623000005488 0.01774 0.30005468824211 0.069194303392389
32 41 2 0.83333333333333 -0.014623000005488 -0.013443000005488 0.33996695084507 0.076288266607901
33 36 2 0.83333333333333 0.0073260000109756 0.0092920000219511 0.26014242576773 0.020919999936173
33 37 2 0.83333333333333 0.0073260000109756 0.0092920000219511 0.26014242576773 0.020919999936173
33 38 2 0.83333333333333 0.0073260000109756 -0.037626999994512 0.30005468824211 0.069194303392389
34 36 2 0.83333333333333 0.0073260000109756 0.0092920000219511 0.26014242576773 0.020919999936173
34 37 2 0.83333333333333 0.0073260000109756 0.0092920000219511 0.26014242576773 0.020919999936173
34 38 2 0.83333333333333 0.0073260000109756 -0.037626999994512 0.30005468824211 0.069194303392389
35 42 2 0.83333333333333 -0.019469000016463 0.0081909999835367 0.30005468824211 0.069194303392389
35 43 2 0.83333333333333 -0.019469000016463 0.0081909999835367 0.30005468824211 0.069194303392389
35 44 2 0.83333333333333 -0.019469000016463 -0.059791999912195 0.33996695084507 0.076288266607901
36 39 2 0.83333333333333 0.0092920000219511 0.01774 0.26014242576773 0.020919999936173
36 40 2 0.83333333333333 0.0092920000219511 0.01774 0.26014242576773 0.020919999936173
36 41 2 0.83333333333333 0.0092920000219511 -0.013443000005488 0.30005468824211 0.069194303392389
37 39 2 0.83333333333333 0.0092920000219511 0.01774 0.26014242576773 0.020919999936173
37 40 2 0.83333333333333 0.0092920000219511 0.01774 0.26014242576773 0.020919999936173
37 41 2 0.83333333333333 0.0092920000219511 -0.013443000005488 0.30005468824211 0.069194303392389
38 45 2 0.83333333333333 -0.037626999994512 0.024240999983537 0.30005468824211 0.069194303392389
38 46 2 0.83333333333333 -0.037626999994512 0.024240999983537 0.30005468824211 0.069194303392389
38 47 2 0.83333333333333 -0.037626999994512 -0.000128 0.33996695084507 0.076288266607901
39 42 2 0.83333333333333 0.01774 0.0081909999835367 0.26014242576773 0.020919999936173
39 43 2 0.83333333333333 0.01774 0.0081909999835367 0.26014242576773 0.020919999936173
39 44 2 0.83333333333333 0.01774 -0.059791999912195 0.30005468824211 0.069194303392389
40 42 2 0.83333333333333 0.01774 0.0081909999835367 0.26014242576773 0.020919999936173
40 43 2 0.83333333333333 0.01774 0.0081909999835367 0.26014242576773 0.020919999936173
40 44 2 0.83333333333333 0.01774 -0.059791999912195 0.30005468824211 0.069194303392389
41 48 2 0.83333333333333 -0.013443000005488 0.013886000010976 0.30005468824211 0.069194303392389
41 49 2 0.83333333333333 -0.013443000005488 0.013886000010976 0.30005468824211 0.069194303392389
41 50 2 0.83333333333333 -0.013443000005488 -0.11702000021951 0.33996695084507 0.076288266607901
42 45 2 0.83333333333333 0.0081909999835367 0.024240999983537 0.26014242576773 0.020919999936173
42 46 2 0.83333333333333 0.0081909999835367 0.024240999983537 0.26014242576773 0.020919999936173
42 47 2 0.83333333333333 0.0081909999835367 -0.000128 0.30005468824211 0.069194303392389
43 45 2 0.83333333333333 0.0081909999835367 0.024240999983537 0.26014242576773 0.020919999936173
43 46 2 0.83333333333333 0.0081909999835367 0.024240999983537 0.26014242576773 0.020919999936173
43 47 2 0.83333333333333 0.0081909999835367 -0.000128 0.30005468824211 0.069194303392389
44 51 2 0.83333333333333 -0.059791999912195 0.051806999994512 0.30005468824211 0.069194303392389
44 52 2 0.83333333333333 -0.059791999912195 0.051806999994512 0.30005468824211 0.069194303392389
44 84 2 0.83333333333333 -0.059791999912195 0.61723100267255 0.33996695087407 0.20291752963184
45 48 2 0.83333333333333 0.024240999983537 0.013886000010976 0.26014242576773 0.020919999936173
45 49 2 0.83333333333333 0.024240999983537 0.013886000010976 0.26014242576773 0.020919999936173
45 50 2 0.83333333333333 0.024240999983537 -0.11702000021951 0.30005468824211 0.069194303392389
46 48 2 0.83333333333333 0.024240999983537 0.013886000010976 0.26014242576773 0.020919999936173
46 49 2 0.83333333333333 0.024240999983537 0.013886000010976 0.26014242576773 0.020919999936173
46 50 2 0.83333333333333 0.024240999983537 -0.11702000021951 0.30005468824211 0.069194303392389
47 82 2 0.83333333333333 -0.000128 -0.38840999983537 0.33248340159794 0.28529542142024
47 85 2 0.83333333333333 -0.000128 -0.64530300236523 0.31797957047595 0.31708813257529
48 51 2 0.83333333333333 0.013886000010976 0.051806999994512 0.26014242576773 0.020919999936173
48 52 2 0.83333333333333 0.013886000010976 0.051806999994512 0.26014242576773 0.020919999936173
48 84 2 0.83333333333333 0.013886000010976 0.61723100267255 0.30005468825729 0.061349482798597
49 51 2 0.83333333333333 0.013886000010976 0.051806999994512 0.26014242576773 0.020919999936173
49 52 2 0.83333333333333 0.013886000010976 0.051806999994512 0.26014242576773 0.020919999936173
49 84 2 0.83333333333333 0.013886000010976 0.61723100267255 0.30005468825729 0.061349482798597
50 53 2 0.83333333333333 -0.11702000021951 0.012739000016463 0.33996695084507 0.2288647998237
50 83 2 0.83333333333333 -0.11702000021951 0.2735919999122 0.22343739849812 0.086700213704004
51 82 2 0.83333333333333 0.051806999994512 -0.38840999983537 0.29257113909277 0.08625536949657
51 85 2 0.83333333333333 0.051806999994512 -0.64530300236523 0.27806730790153 0.095867483596702
52 82 2 0.83333333333333 0.051806999994512 -0.38840999983537 0.29257113909277 0.08625536949657
52 85 2 0.83333333333333 0.051806999994512 -0.64530300236523 0.27806730790153 0.095867483596702
53 59 2 0.83333333333333 0.012739000016463 1.3247620004061 0.35707220617836 0.30944633210394
53 85 2 0.83333333333333 0.012739000016463 -0.64530300236523 0.31797957047595 0.31708813257529
53 89 2 0.83333333333333 0.012739000016463 0.43496400015366 0.22343739849812 0.086700213704004
53 130 2 0.83333333333333 0.012739000016463 0.02829 0.33996695087407 0.20291752963184
53 133 2 0.83333333333333 0.012739000016463 0.14555000027439 0.28134581515096 0.057892107742859
54 56 2 0.83333333333333 0.087455000192072 0.051622000021951 0.24713530426422 0.032844400205981
54 57 2 0.83333333333333 0.087455000192072 0.051622000021951 0.24713530426422 0.032844400205981
54 58 2 0.83333333333333 0.087455000192072 -0.53335600006585 0.27356826939641 0.10807766839674
54 83 2 0.83333333333333 0.087455000192072 0.2735919999122 0.17702157530218 0.03284439999243
54 84 2 0.83333333333333 0.087455000192072 0.61723100267255 0.29355112761526 0.076870681673027
54 87 2 0.83333333333333 0.087455000192072 0.069208000087805 0.24713530426422 0.032844400205981
54 88 2 0.83333333333333 0.087455000192072 -0.72303299802989 0.27689132152878 0.12023595996226
54 132 2 0.83333333333333 0.087455000192072 -0.34188899974207 0.29355112761526 0.076870681673027
55 60 2 0.83333333333333 0.17662500013719 -0.4593080000878 0.31998409262799 0.28529542121767
55 80 2 0.83333333333333 0.17662500013719 -0.88478900029085 0.31797957047595 0.31708813257529
55 81 2 0.83333333333333 0.17662500013719 -0.88478900029085 0.31797957047595 0.31708813257529
55 83 2 0.83333333333333 0.17662500013719 0.2735919999122 0.22343739849812 0.086700213704004
55 84 2 0.83333333333333 0.17662500013719 0.61723100267255 0.33996695087407 0.20291752963184
55 87 2 0.83333333333333 0.17662500013719 0.069208000087805 0.29355112776543 0.086700213146672
55 88 2 0.83333333333333 0.17662500013719 -0.72303299802989 0.32330714485393 0.31738997747947
55 132 2 0.83333333333333 0.17662500013719 -0.34188899974207 0.33996695087407 0.20291752963184
56 59 2 0.83333333333333 0.051622000021951 1.3247620004061 0.31065638299277 0.11722669057481
56 82 2 0.83333333333333 0.051622000021951 -0.38840999983537 0.2860675785499 0.10807766765337
56 86 2 0.83333333333333 0.051622000021951 0.3230919999122 0.29355112776543 0.086700213146672
57 59 2 0.83333333333333 0.051622000021951 1.3247620004061 0.31065638299277 0.11722669057481
57 82 2 0.83333333333333 0.051622000021951 -0.38840999983537 0.2860675785499 0.10807766765337
57 86 2 0.83333333333333 0.051622000021951 0.3230919999122 0.29355112776543 0.086700213146672
58 61 2 0.83333333333333 -0.53335600006585 0.28244700010427 0.31998409262799 0.28529542121767
58 82 2 0.83333333333333 -0.53335600006585 -0.38840999983537 0.31250054330942 0.35564000053052
58 86 2 0.83333333333333 -0.53335600006585 0.3230919999122 0.31998409262799 0.28529542121767
59 62 2 0.83333333333333 1.3247620004061 0.049886000010976 0.31065638299277 0.11722669057481
59 63 2 0.83333333333333 1.3247620004061 0.049886000010976 0.31065638299277 0.11722669057481
59 64 2 0.83333333333333 1.3247620004061 -0.49366500002744 0.35707220617836 0.30944633210394
60 65 2 0.83333333333333 -0.4593080000878 0.23383999989024 0.24799947608237 0.10807766872372
60 66 2 0.83333333333333 -0.4593080000878 0.23383999989024 0.24799947608237 0.10807766872372
60 67 2 0.83333333333333 -0.4593080000878 0.24527499986281 0.31250054330942 0.35564000053052
61 68 2 0.83333333333333 0.28244700010427 -0.38661100025793 0.33996695084507 0.2288647998237
61 72 2 0.83333333333333 0.28244700010427 -0.38661100025793 0.33996695084507 0.2288647998237
61 76 2 0.83333333333333 0.28244700010427 -0.38661100025793 0.33996695084507 0.2288647998237
61 80 2 0.83333333333333 0.28244700010427 -0.88478900029085 0.31797957047595 0.31708813257529
61 81 2 0.83333333333333 0.28244700010427 -0.88478900029085 0.31797957047595 0.31708813257529
62 65 2 0.83333333333333 0.049886000010976 0.23383999989024 0.22156651118302 0.032844400019638
62 66 2 0.83333333333333 0.049886000010976 0.23383999989024 0.22156651118302 0.032844400019638
62 67 2 0.83333333333333 0.049886000010976 0.24527499986281 0.2860675785499 0.10807766765337
63 65 2 0.83333333333333 0.049886000010976 0.23383999989024 0.22156651118302 0.032844400019638
63 66 2 0.83333333333333 0.049886000010976 0.23383999989024 0.22156651118302 0.032844400019638
63 67 2 0.83333333333333 0.049886000010976 0.24527499986281 0.2860675785499 0.10807766765337
64 69 2 0.83333333333333 -0.49366500002744 0.19156900007134 0.26798233433913 0.086700213743521
64 70 2 0.83333333333333 -0.49366500002744 0.19156900007134 0.26798233433913 0.086700213743521
64 71 2 0.83333333333333 -0.49366500002744 0.19156900007134 0.26798233433913 0.086700213743521
64 73 2 0.83333333333333 -0.49366500002744 0.19156900007134 0.26798233433913 0.086700213743521
64 74 2 0.83333333333333 -0.49366500002744 0.19156900007134 0.26798233433913 0.086700213743521
64 75 2 0.83333333333333 -0.49366500002744 0.19156900007134 0.26798233433913 0.086700213743521
64 77 2 0.83333333333333 -0.49366500002744 0.19156900007134 0.26798233433913 0.086700213743521
64 78 2 0.83333333333333 -0.49366500002744 0.19156900007134 0.26798233433913 0.086700213743521
64 79 2 0.83333333333333 -0.49366500002744 0.19156900007134 0.26798233433913 0.086700213743521
65 68 2 0.83333333333333 0.23383999989024 -0.38661100025793 0.26798233433913 0.086700213743521
65 72 2 0.83333333333333 0.23383999989024 -0.38661100025793 0.26798233433913 0.086700213743521
65 76 2 0.83333333333333 0.23383999989024 -0.38661100025793 0.26798233433913 0.086700213743521
66 68 2 0.83333333333333 0.23383999989024 -0.38661100025793 0.26798233433913 0.086700213743521
66 72 2 0.83333333333333 0.23383999989024 -0.38661100025793 0.26798233433913 0.086700213743521
66 76 2 0.83333333333333 0.23383999989024 -0.38661100025793 0.26798233433913 0.086700213743521
68 73 2 0.83333333333333 -0.38661100025793 0.19156900007134 0.26798233433913 0.086700213743521
68 74 2 0.83333333333333 -0.38661100025793 0.19156900007134 0.26798233433913 0.086700213743521
68 75 2 0.83333333333333 -0.38661100025793 0.19156900007134 0.26798233433913 0.086700213743521
68 77 2 0.83333333333333 -0.38661100025793 0.19156900007134 0.26798233433913 0.086700213743521
68 78 2 0.83333333333333 -0.38661100025793 0.19156900007134 0.26798233433913 0.086700213743521
68 79 2 0.83333333333333 -0.38661100025793 0.19156900007134 0.26798233433913 0.086700213743521
69 72 2 0.83333333333333 0.19156900007134 -0.38661100025793 0.26798233433913 0.086700213743521
69 76 2 0.83333333333333 0.19156900007134 -0.38661100025793 0.26798233433913 0.086700213743521
70 72 2 0.83333333333333 0.19156900007134 -0.38661100025793 0.26798233433913 0.086700213743521
70 76 2 0.83333333333333 0.19156900007134 -0.38661100025793 0.26798233433913 0.086700213743521
71 72 2 0.83333333333333 0.19156900007134 -0.38661100025793 0.26798233433913 0.086700213743521
71 76 2 0.83333333333333 0.19156900007134 -0.38661100025793 0.26798233433913 0.086700213743521
72 77 2 0.83333333333333 -0.38661100025793 0.19156900007134 0.26798233433913 0.086700213743521
72 78 2 0.83333333333333 -0.38661100025793 0.19156900007134 0.26798233433913 0.086700213743521
72 79 2 0.83333333333333 -0.38661100025793 0.19156900007134 0.26798233433913 0.086700213743521
73 76 2 0.83333333333333 0.19156900007134 -0.38661100025793 0.26798233433913 0.086700213743521
74 76 2 0.83333333333333 0.19156900007134 -0.38661100025793 0.26798233433913 0.086700213743521
75 76 2 0.83333333333333 0.19156900007134 -0.38661100025793 0.26798233433913 0.086700213743521
82 87 2 0.83333333333333 -0.38840999983537 0.069208000087805 0.2860675785499 0.10807766765337
82 88 2 0.83333333333333 -0.38840999983537 -0.72303299802989 0.31582359560094 0.39564803048883
82 132 2 0.83333333333333 -0.38840999983537 -0.34188899974207 0.33248340159779 0.25295039773877
83 85 2 0.83333333333333 0.2735919999122 -0.64530300236523 0.20145001816794 0.12012161236148
83 86 2 0.83333333333333 0.2735919999122 0.3230919999122 0.22343739849812 0.086700213704004
84 86 2 0.83333333333333 0.61723100267255 0.3230919999122 0.33996695087407 0.20291752963184
86 127 2 0.83333333333333 0.3230919999122 -0.25813800014268 0.33996695084507 0.2288647998237
86 131 2 0.83333333333333 0.3230919999122 0.11628100020305 0.28134581515096 0.057892107742859
87 89 2 0.83333333333333 0.069208000087805 0.43496400015366 0.17702157530218 0.03284439999243
87 130 2 0.83333333333333 0.069208000087805 0.02829 0.29355112761526 0.076870681673027
87 133 2 0.83333333333333 0.069208000087805 0.14555000027439 0.23492999188912 0.021931105677796
88 130 2 0.83333333333333 -0.72303299802989 0.02829 0.32330714484621 0.28140627211592
88 133 2 0.83333333333333 -0.72303299802989 0.14555000027439 0.26468600926695 0.080284843799356
89 132 2 0.83333333333333 0.43496400015366 -0.34188899974207 0.22343739851452 0.076870681768142
90 98 2 0.83333333333333 -0.19999900012622 0.01097 0.30005468824211 0.069194303392389
90 99 2 0.83333333333333 -0.19999900012622 0.01097 0.30005468824211 0.069194303392389
90 100 2 0.83333333333333 -0.19999900012622 -0.11922500013719 0.33996695084507 0.076288266607901
91 95 2 0.83333333333333 0.049470999983537 0.026483999989024 0.26014242576773 0.020919999936173
91 96 2 0.83333333333333 0.049470999983537 0.026483999989024 0.26014242576773 0.020919999936173
91 97 2 0.83333333333333 0.049470999983537 0.044647999978049 0.30005468824211 0.069194303392389
92 95 2 0.83333333333333 0.049470999983537 0.026483999989024 0.26014242576773 0.020919999936173
92 96 2 0.83333333333333 0.049470999983537 0.026483999989024 0.26014242576773 0.020919999936173
92 97 2 0.83333333333333 0.049470999983537 0.044647999978049 0.30005468824211 0.069194303392389
93 95 2 0.83333333333333 0.049470999983537 0.026483999989024 0.26014242576773 0.020919999936173
93 96 2 0.83333333333333 0.049470999983537 0.026483999989024 0.26014242576773 0.020919999936173
93 97 2 0.83333333333333 0.049470999983537 0.044647999978049 0.30005468824211 0.069194303392389
94 101 2 0.83333333333333 -0.046780999983537 0.04033 0.30005468824211 0.069194303392389
94 102 2 0.83333333333333 -0.046780999983537 0.04033 0.30005468824211 0.069194303392389
94 103 2 0.83333333333333 -0.046780999983537 0.001048 0.33996695084507 0.076288266607901
95 98 2 0.83333333333333 0.026483999989024 0.01097 0.26014242576773 0.020919999936173
95 99 2 0.83333333333333 0.026483999989024 0.01097 0.26014242576773 0.020919999936173
95 100 2 0.83333333333333 0.026483999989024 -0.11922500013719 0.30005468824211 0.069194303392389
96 98 2 0.83333333333333 0.026483999989024 0.01097 0.26014242576773 0.020919999936173
96 99 2 0.83333333333333 0.026483999989024 0.01097 0.26014242576773 0.020919999936173
96 100 2 0.83333333333333 0.026483999989024 -0.11922500013719 0.30005468824211 0.069194303392389
97 104 2 0.83333333333333 0.044647999978049 0.016935000027439 0.30005468824211 0.069194303392389
97 105 2 0.83333333333333 0.044647999978049 0.016935000027439 0.30005468824211 0.069194303392389
97 106 2 0.83333333333333 0.044647999978049 -0.07941700004939 0.33996695084507 0.076288266607901
98 101 2 0.83333333333333 0.01097 0.04033 0.26014242576773 0.020919999936173
98 102 2 0.83333333333333 0.01097 0.04033 0.26014242576773 0.020919999936173
98 103 2 0.83333333333333 0.01097 0.001048 0.30005468824211 0.069194303392389
99 101 2 0.83333333333333 0.01097 0.04033 0.26014242576773 0.020919999936173
99 102 2 0.83333333333333 0.01097 0.04033 0.26014242576773 0.020919999936173
99 103 2 0.83333333333333 0.01097 0.001048 0.30005468824211 0.069194303392389
100 107 2 0.83333333333333 -0.11922500013719 0.023502000021951 0.30005468824211 0.069194303392389
100 108 2 0.83333333333333 -0.11922500013719 0.023502000021951 0.30005468824211 0.069194303392389
100 109 2 0.83333333333333 -0.11922500013719 -0.066372000241462 0.33996695084507 0.076288266607901
101 104 2 0.83333333333333 0.04033 0.016935000027439 0.26014242576773 0.020919999936173
101 105 2 0.83333333333333 0.04033 0.016935000027439 0.26014242576773 0.020919999936173
101 106 2 0.83333333333333 0.04033 -0.07941700004939 0.30005468824211 0.069194303392389
102 104 2 0.83333333333333 0.04033 0.016935000027439 0.26014242576773 0.020919999936173
102 105 2 0.83333333333333 0.04033 0.016935000027439 0.26014242576773 0.020919999936173
102 106 2 0.83333333333333 0.04033 -0.07941700004939 0.30005468824211 0.069194303392389
103 110 2 0.83333333333333 0.001048 0.021723000005488 0.30005468824211 0.069194303392389
103 111 2 0.83333333333333 0.001048 0.021723000005488 0.30005468824211 0.069194303392389
103 112 2 0.83333333333333 0.001048 0.053352000021951 0.33996695084507 0.076288266607901
104 107 2 0.83333333333333 0.016935000027439 0.023502000021951 0.26014242576773 0.020919999936173
104 108 2 0.83333333333333 0.016935000027439 0.023502000021951 0.26014242576773 0.020919999936173
104 109 2 0.83333333333333 0.016935000027439 -0.066372000241462 0.30005468824211 0.069194303392389
105 107 2 0.83333333333333 0.016935000027439 0.023502000021951 0.26014242576773 0.020919999936173
105 108 2 0.83333333333333 0.016935000027439 0.023502000021951 0.26014242576773 0.020919999936173
105 109 2 0.83333333333333 0.016935000027439 -0.066372000241462 0.30005468824211 0.069194303392389
106 113 2 0.83333333333333 -0.07941700004939 0.0202 0.30005468824211 0.069194303392389
106 114 2 0.83333333333333 -0.07941700004939 0.0202 0.30005468824211 0.069194303392389
106 115 2 0.83333333333333 -0.07941700004939 -0.18788899974207 0.33996695084507 0.076288266607901
107 110 2 0.83333333333333 0.023502000021951 0.021723000005488 0.26014242576773 0.020919999936173
107 111 2 0.83333333333333 0.023502000021951 0.021723000005488 0.26014242576773 0.020919999936173
107 112 2 0.83333333333333 0.023502000021951 0.053352000021951 0.30005468824211 0.069194303392389
108 110 2 0.83333333333333 0.023502000021951 0.021723000005488 0.26014242576773 0.020919999936173
108 111 2 0.83333333333333 0.023502000021951 0.021723000005488 0.26014242576773 0.020919999936173
108 112 2 0.83333333333333 0.023502000021951 0.053352000021951 0.30005468824211 0.069194303392389
109 116 2 0.83333333333333 -0.066372000241462 0.046909000016463 0.30005468824211 0.069194303392389
109 117 2 0.83333333333333 -0.066372000241462 0.046909000016463 0.30005468824211 0.069194303392389
109 118 2 0.83333333333333 -0.066372000241462 0.049287999978049 0.33996695084507 0.076288266607901
110 113 2 0.83333333333333 0.021723000005488 0.0202 0.26014242576773 0.020919999936173
110 114 2 0.83333333333333 0.021723000005488 0.0202 0.26014242576773 0.020919999936173
110 115 2 0.83333333333333 0.021723000005488 -0.18788899974207 0.30005468824211 0.069194303392389
111 113 2 0.83333333333333 0.021723000005488 0.0202 0.26014242576773 0.020919999936173
111 114 2 0.83333333333333 0.021723000005488 0.0202 0.26014242576773 0.020919999936173
111 115 2 0.83333333333333 0.021723000005488 -0.18788899974207 0.30005468824211 0.069194303392389
112 119 2 0.83333333333333 0.053352000021951 0.0060450000274389 0.30005468824211 0.069194303392389
112 120 2 0.83333333333333 0.053352000021951 0.0060450000274389 0.30005468824211 0.069194303392389
112 121 2 0.83333333333333 0.053352000021951 -0.012996999994512 0.33996695084507 0.076288266607901
113 116 2 0.83333333333333 0.0202 0.046909000016463 0.26014242576773 0.020919999936173
113 117 2 0.83333333333333 0.0202 0.046909000016463 0.26014242576773 0.020919999936173
113 118 2 0.83333333333333 0.0202 0.049287999978049 0.30005468824211 0.069194303392389
114 116 2 0.83333333333333 0.0202 0.046909000016463 0.26014242576773 0.020919999936173
114 117 2 0.83333333333333 0.0202 0.046909000016463 0.26014242576773 0.020919999936173
114 118 2 0.83333333333333 0.0202 0.049287999978049 0.30005468824211 0.069194303392389
115 122 2 0.83333333333333 -0.18788899974207 0.003223 0.30005468824211 0.069194303392389
115 123 2 0.83333333333333 -0.18788899974207 0.003223 0.30005468824211 0.069194303392389
115 124 2 0.83333333333333 -0.18788899974207 0.093170999818903 0.33996695084507 0.076288266607901
116 119 2 0.83333333333333 0.046909000016463 0.0060450000274389 0.26014242576773 0.020919999936173
116 120 2 0.83333333333333 0.046909000016463 0.0060450000274389 0.26014242576773 0.020919999936173
116 121 2 0.83333333333333 0.046909000016463 -0.012996999994512 0.30005468824211 0.069194303392389
117 119 2 0.83333333333333 0.046909000016463 0.0060450000274389 0.26014242576773 0.020919999936173
117 120 2 0.83333333333333 0.046909000016463 0.0060450000274389 0.26014242576773 0.020919999936173
117 121 2 0.83333333333333 0.046909000016463 -0.012996999994512 0.30005468824211 0.069194303392389
118 125 2 0.83333333333333 0.049287999978049 -0.01169 0.30005468824211 0.069194303392389
118 126 2 0.83333333333333 0.049287999978049 -0.01169 0.30005468824211 0.069194303392389
118 127 2 0.83333333333333 0.049287999978049 -0.25813800014268 0.33996695084507 0.076288266607901
119 122 2 0.83333333333333 0.0060450000274389 0.003223 0.26014242576773 0.020919999936173
119 123 2 0.83333333333333 0.0060450000274389 0.003223 0.26014242576773 0.020919999936173
119 124 2 0.83333333333333 0.0060450000274389 0.093170999818903 0.30005468824211 0.069194303392389
120 122 2 0.83333333333333 0.0060450000274389 0.003223 0.26014242576773 0.020919999936173
120 123 2 0.83333333333333 0.0060450000274389 0.003223 0.26014242576773 0.020919999936173
120 124 2 0.83333333333333 0.0060450000274389 0.093170999818903 0.30005468824211 0.069194303392389
121 128 2 0.83333333333333 -0.012996999994512 0.076843000060366 0.30005468824211 0.069194303392389
121 129 2 0.83333333333333 -0.012996999994512 0.076843000060366 0.30005468824211 0.069194303392389
121 130 2 0.83333333333333 -0.012996999994512 0.02829 0.33996695087407 0.20291752963184
122 125 2 0.83333333333333 0.003223 -0.01169 0.26014242576773 0.020919999936173
122 126 2 0.83333333333333 0.003223 -0.01169 0.26014242576773 0.020919999936173
122 127 2 0.83333333333333 0.003223 -0.25813800014268 0.30005468824211 0.069194303392389
123 125 2 0.83333333333333 0.003223 -0.01169 0.26014242576773 0.020919999936173
123 126 2 0.83333333333333 0.003223 -0.01169 0.26014242576773 0.020919999936173
123 127 2 0.83333333333333 0.003223 -0.25813800014268 0.30005468824211 0.069194303392389
124 131 2 0.83333333333333 0.093170999818903 0.11628100020305 0.28134581515096 0.057892107742859
124 132 2 0.83333333333333 0.093170999818903 -0.34188899974207 0.33996695087407 0.20291752963184
125 128 2 0.83333333333333 -0.01169 0.076843000060366 0.26014242576773 0.020919999936173
125 129 2 0.83333333333333 -0.01169 0.076843000060366 0.26014242576773 0.020919999936173
125 130 2 0.83333333333333 -0.01169 0.02829 0.30005468825729 0.061349482798597
126 128 2 0.83333333333333 -0.01169 0.076843000060366 0.26014242576773 0.020919999936173
126 129 2 0.83333333333333 -0.01169 0.076843000060366 0.26014242576773 0.020919999936173
126 130 2 0.83333333333333 -0.01169 0.02829 0.30005468825729 0.061349482798597
127 133 2 0.83333333333333 -0.25813800014268 0.14555000027439 0.28134581515096 0.057892107742859
128 131 2 0.83333333333333 0.076843000060366 0.11628100020305 0.24143355271439 0.017502927720476
128 132 2 0.83333333333333 0.076843000060366 -0.34188899974207 0.30005468825729 0.061349482798597
129 131 2 0.83333333333333 0.076843000060366 0.11628100020305 0.24143355271439 0.017502927720476
129 132 2 0.83333333333333 0.076843000060366 -0.34188899974207 0.30005468825729 0.061349482798597
131 133 2 0.83333333333333 0.11628100020305 0.14555000027439 0.22272467949703 0.014644000015013

[ angles ]
;    ai     aj     ak funct         c0         c1         c2         c3
     50     84     82     1   115.1500496 567.852480
     50     84     85     1   123.1100526 569.275040
     47     50     84     1   110.5300474 533.794720
     44     47     50     1   112.0500483 394.969600
     41     44     47     1   112.0500483 394.969600
     38     41     44     1   112.0500483 394.969600
     35     38     41     1   112.0500483 394.969600
     32     35     38     1   112.0500483 394.969600
     29     32     35     1   112.0500483 394.969600
     26     29     32     1   112.0500483 394.969600
     23     26     29     1   112.0500483 394.969600
     20     23     26     1   112.0500483 394.969600
     17     20     23     1   112.0500483 394.969600
     14     17     20     1   112.0500483 394.969600
     11     14     17     1   112.0500483 394.969600
      8     11     14     1   112.0500483 394.969600
      5      8     11     1   112.0500483 394.969600
      1      5      8     1   112.0500483 394.969600
     88     86    132     1   110.2100471 570.530240
     86    132    130     1   123.4200531 538.313440
     82     53     86     1   112.1300481 551.032800
     82     84     85     1   122.0300524 634.545440
     80     59     81     1   119.9000514 1171.520000
     72     67     76     1   110.6400473 525.845120
     68     67     72     1   110.6400473 525.845120
     68     67     76     1   110.6400473 525.845120
     64     67     72     1   110.6400473 525.845120
     64     67     76     1   110.6400473 525.845120
     64     67     68     1   110.6400473 525.845120
     61     64     67     1   114.3200492 539.317600
     60     59     80     1   108.2300464 836.800000
     60     59     81     1   108.2300464 836.800000
     60     61     64     1   108.4200467 567.183040
     59     60     61     1   120.5000516 836.800000
     58     59     60     1   102.6000440 753.120000
     58     59     80     1   108.2300464 836.800000
     58     59     81     1   108.2300464 836.800000
     55     53     82     1   112.1300481 551.032800
     55     53     86     1   110.6300475 528.941280
     55     58     59     1   120.5000516 836.800000
     53     82     84     1   121.3500523 534.882560
     53     55     58     1   108.4200467 567.183040
     53     86     88     1   109.4300470 566.680960
     53     86    132     1   111.4400476 531.619040
    127    130    132     1   123.4200531 538.313440
    124    127    130     1   111.4400476 531.619040
    121    124    127     1   112.0500483 394.969600
    118    121    124     1   112.0500483 394.969600
    115    118    121     1   112.0500483 394.969600
    112    115    118     1   112.0500483 394.969600
    109    112    115     1   112.0500483 394.969600
    106    109    112     1   112.0500483 394.969600
    103    106    109     1   112.0500483 394.969600
    100    103    106     1   112.0500483 394.969600
     97    100    103     1   112.0500483 394.969600
     94     97    100     1   112.0500483 394.969600
     90     94     97     1   112.0500483 394.969600
     52     50     84     1   109.6800468 394.969600
     51     50     52     1   108.3500467 329.950240
     51     50     84     1   109.6800468 394.969600
     49     47     50     1   110.0500475 388.024160
     48     47     50     1   110.0500475 388.024160
     48     47     49     1   108.3500467 329.950240
     47     50     51     1   110.0500475 388.024160
     47     50     52     1   110.0500475 388.024160
     46     44     47     1   110.0500475 388.024160
     45     44     47     1   110.0500475 388.024160
     45     44     46     1   108.3500467 329.950240
     44     47     49     1   110.0500475 388.024160
     44     47     48     1   110.0500475 388.024160
     43     41     44     1   110.0500475 388.024160
     42     41     44     1   110.0500475 388.024160
     42     41     43     1   108.3500467 329.950240
     41     44     45     1   110.0500475 388.024160
     41     44     46     1   110.0500475 388.024160
     40     38     41     1   110.0500475 388.024160
     39     38     41     1   110.0500475 388.024160
     39     38     40     1   108.3500467 329.950240
     38     41     43     1   110.0500475 388.024160
     38     41     42     1   110.0500475 388.024160
     37     35     38     1   110.0500475 388.024160
     36     35     38     1   110.0500475 388.024160
     36     35     37     1   108.3500467 329.950240
     35     38     39     1   110.0500475 388.024160
     35     38     40     1   110.0500475 388.024160
     34     32     35     1   110.0500475 388.024160
     33     32     35     1   110.0500475 388.024160
     33     32     34     1   108.3500467 329.950240
     32     35     37     1   110.0500475 388.024160
     32     35     36     1   110.0500475 388.024160
     31     29     32     1   110.0500475 388.024160
     30     29     32     1   110.0500475 388.024160
     30     29     31     1   108.3500467 329.950240
     29     32     33     1   110.0500475 388.024160
     29     32     34     1   110.0500475 388.024160
     28     26     29     1   110.0500475 388.024160
     27     26     29     1   110.0500475 388.024160
     27     26     28     1   108.3500467 329.950240
     26     29     31     1   110.0500475 388.024160
     26     29     30     1   110.0500475 388.024160
     25     23     26     1   110.0500475 388.024160
     24     23     26     1   110.0500475 388.024160
     24     23     25     1   108.3500467 329.950240
     23     26     27     1   110.0500475 388.024160
     23     26     28     1   110.0500475 388.024160
     22     20     23     1   110.0500475 388.024160
     21     20     23     1   110.0500475 388.024160
     21     20     22     1   108.3500467 329.950240
     20     23     25     1   110.0500475 388.024160
     20     23     24     1   110.0500475 388.024160
     19     17     20     1   110.0500475 388.024160
     18     17     20     1   110.0500475 388.024160
     18     17     19     1   108.3500467 329.950240
     17     20     21     1   110.0500475 388.024160
     17     20     22     1   110.0500475 388.024160
     16     14     17     1   110.0500475 388.024160
     15     14     17     1   110.0500475 388.024160
     15     14     16     1   108.3500467 329.950240
     14     17     19     1   110.0500475 388.024160
     14     17     18     1   110.0500475 388.024160
     13     11     14     1   110.0500475 388.024160
     12     11     14     1   110.0500475 388.024160
     12     11     13     1   108.3500467 329.950240
     11     14     15     1   110.0500475 388.024160
     11     14     16     1   110.0500475 388.024160
     10      8     11     1   110.0500475 388.024160
      9      8     11     1   110.0500475 388.024160
      9      8     10     1   108.3500467 329.950240
      8     11     13     1   110.0500475 388.024160
      8     11     12     1   110.0500475 388.024160
      7      5      8     1   110.0500475 388.024160
      6      5      8     1   110.0500475 388.024160
      6      5      7     1   108.3500467 329.950240
      5      8      9     1   110.0500475 388.024160
      5      8     10     1   110.0500475 388.024160
      4      1      5     1   110.0500475 388.024160
      3      1      5     1   110.0500475 388.024160
      3      1      4     1   108.3500467 329.950240
      2      1      5     1   110.0500475 388.024160
      2      1      4     1   108.3500467 329.950240
      2      1      3     1   108.3500467 329.950240
      1      5      7     1   110.0500475 388.024160
      1      5      6     1   110.0500475 388.024160
     87     86     88     1   109.8800469 426.516960
     87     86    132     1   110.4600475 393.547040
     86     88     89     1   108.1600465 394.049120
     86    132    133     1   117.3000503 382.082880
     83     82     84     1   118.4600509 411.789280
     78     76     79     1   110.7400473 326.686720
     77     76     79     1   110.7400473 326.686720
     77     76     78     1   110.7400473 326.686720
     74     72     75     1   110.7400473 326.686720
     73     72     75     1   110.7400473 326.686720
     73     72     74     1   110.7400473 326.686720
     70     68     71     1   110.7400473 326.686720
     69     68     70     1   110.7400473 326.686720
     69     68     71     1   110.7400473 326.686720
     67     72     75     1   107.9100461 410.199360
     67     72     74     1   107.9100461 410.199360
     67     72     73     1   107.9100461 410.199360
     67     76     79     1   107.9100461 410.199360
     67     76     77     1   107.9100461 410.199360
     67     76     78     1   107.9100461 410.199360
     67     68     69     1   107.9100461 410.199360
     67     68     70     1   107.9100461 410.199360
     67     68     71     1   107.9100461 410.199360
     66     64     67     1   107.9100461 410.199360
     65     64     67     1   107.9100461 410.199360
     65     64     66     1   110.7400473 326.686720
     63     61     64     1   110.0700471 387.940480
     62     61     64     1   110.0700471 387.940480
     62     61     63     1   109.5500472 327.858240
     61     64     65     1   111.7400478 385.095360
     61     64     66     1   111.7400478 385.095360
     60     61     63     1   108.8200469 425.429120
     60     61     62     1   108.8200469 425.429120
     57     55     58     1   108.8200469 425.429120
     56     55     58     1   108.8200469 425.429120
     56     55     57     1   109.5500472 327.858240
     54     53     82     1   109.3200471 416.893760
     54     53     55     1   110.0700471 387.940480
     54     53     86     1   110.0700471 387.940480
     53     82     83     1   116.7800498 385.262720
     53     55     57     1   110.0700471 387.940480
     53     55     56     1   110.0700471 387.940480
     53     86     87     1   110.0700471 387.940480
    131    130    132     1   120.9400517 418.734720
    130    132    133     1   120.9400517 418.734720
    129    127    130     1   110.4900475 393.547040
    128    127    130     1   110.4900475 393.547040
    128    127    129     1   108.3500467 329.950240
    127    130    131     1   117.3000503 382.082880
    126    124    127     1   110.0500475 388.024160
    125    124    127     1   110.0500475 388.024160
    125    124    126     1   108.3500467 329.950240
    124    127    128     1   110.0500475 388.024160
    124    127    129     1   110.0500475 388.024160
    123    121    124     1   110.0500475 388.024160
    122    121    124     1   110.0500475 388.024160
    122    121    123     1   108.3500467 329.950240
    121    124    126     1   110.0500475 388.024160
    121    124    125     1   110.0500475 388.024160
    120    118    121     1   110.0500475 388.024160
    119    118    121     1   110.0500475 388.024160
    119    118    120     1   108.3500467 329.950240
    118    121    122     1   110.0500475 388.024160
    118    121    123     1   110.0500475 388.024160
    117    115    118     1   110.0500475 388.024160
    116    115    118     1   110.0500475 388.024160
    116    115    117     1   108.3500467 329.950240
    115    118    120     1   110.0500475 388.024160
    115    118    119     1   110.0500475 388.024160
    114    112    115     1   110.0500475 388.024160
    113    112    115     1   110.0500475 388.024160
    113    112    114     1   108.3500467 329.950240
    112    115    117     1   110.0500475 388.024160
    112    115    116     1   110.0500475 388.024160
    111    109    112     1   110.0500475 388.024160
    110    109    112     1   110.0500475 388.024160
    110    109    111     1   108.3500467 329.950240
    109    112    113     1   110.0500475 388.024160
    109    112    114     1   110.0500475 388.024160
    108    106    109     1   110.0500475 388.024160
    107    106    109     1   110.0500475 388.024160
    107    106    108     1   108.3500467 329.950240
    106    109    110     1   110.0500475 388.024160
    106    109    111     1   110.0500475 388.024160
    105    103    106     1   110.0500475 388.024160
    104    103    106     1   110.0500475 388.024160
    104    103    105     1   108.3500467 329.950240
    103    106    108     1   110.0500475 388.024160
    103    106    107     1   110.0500475 388.024160
    102    100    103     1   110.0500475 388.024160
    101    100    103     1   110.0500475 388.024160
    101    100    102     1   108.3500467 329.950240
    100    103    105     1   110.0500475 388.024160
    100    103    104     1   110.0500475 388.024160
     99     97    100     1   110.0500475 388.024160
     98     97    100     1   110.0500475 388.024160
     98     97     99     1   108.3500467 329.950240
     97    100    102     1   110.0500475 388.024160
     97    100    101     1   110.0500475 388.024160
     96     94     97     1   110.0500475 388.024160
     95     94     97     1   110.0500475 388.024160
     95     94     96     1   108.3500467 329.950240
     94     97     98     1   110.0500475 388.024160
     94     97     99     1   110.0500475 388.024160
     93     90     94     1   110.0500475 388.024160
     92     90     94     1   110.0500475 388.024160
     92     90     93     1   108.3500467 329.950240
     91     90     94     1   110.0500475 388.024160
     91     90     92     1   108.3500467 329.950240
     91     90     93     1   108.3500467 329.950240
     90     94     96     1   110.0500475 388.024160
     90     94     95     1   110.0500475 388.024160


[ dihedrals ]
;    ai     aj     ak     al funct         c0         c1         c2         c3         c4         c5
     50     84     82     53     1  180.0000771  10.4600000  2
     47     50     84     82     1  180.0000771  0.0000000  2
     47     50     84     85     1  180.0000771  0.0000000  2
     44     47     50     84     1  0.0000000  0.6527040  3
     41     44     47     50     1  0.0000000  0.4184000  1
     41     44     47     50     1  0.0000000  0.4184000  2
     41     44     47     50     1  0.0000000  1.2552000  3
     41     44     47     50     1  0.0000000  0.4184000  4
     41     44     47     50     1  0.0000000  0.4184000  5
     38     41     44     47     1  0.0000000  0.4184000  1
     38     41     44     47     1  0.0000000  0.4184000  2
     38     41     44     47     1  0.0000000  1.2552000  3
     38     41     44     47     1  0.0000000  0.4184000  4
     38     41     44     47     1  0.0000000  0.4184000  5
     35     38     41     44     1  0.0000000  0.4184000  1
     35     38     41     44     1  0.0000000  0.4184000  2
     35     38     41     44     1  0.0000000  1.2552000  3
     35     38     41     44     1  0.0000000  0.4184000  4
     35     38     41     44     1  0.0000000  0.4184000  5
     32     35     38     41     1  0.0000000  0.4184000  1
     32     35     38     41     1  0.0000000  0.4184000  2
     32     35     38     41     1  0.0000000  1.2552000  3
     32     35     38     41     1  0.0000000  0.4184000  4
     32     35     38     41     1  0.0000000  0.4184000  5
     29     32     35     38     1  0.0000000  0.4184000  1
     29     32     35     38     1  0.0000000  0.4184000  2
     29     32     35     38     1  0.0000000  1.2552000  3
     29     32     35     38     1  0.0000000  0.4184000  4
     29     32     35     38     1  0.0000000  0.4184000  5
     26     29     32     35     1  0.0000000  0.4184000  1
     26     29     32     35     1  0.0000000  0.4184000  2
     26     29     32     35     1  0.0000000  1.2552000  3
     26     29     32     35     1  0.0000000  0.4184000  4
     26     29     32     35     1  0.0000000  0.4184000  5
     23     26     29     32     1  0.0000000  0.4184000  1
     23     26     29     32     1  0.0000000  0.4184000  2
     23     26     29     32     1  0.0000000  1.2552000  3
     23     26     29     32     1  0.0000000  0.4184000  4
     23     26     29     32     1  0.0000000  0.4184000  5
     20     23     26     29     1  0.0000000  0.4184000  1
     20     23     26     29     1  0.0000000  0.4184000  2
     20     23     26     29     1  0.0000000  1.2552000  3
     20     23     26     29     1  0.0000000  0.4184000  4
     20     23     26     29     1  0.0000000  0.4184000  5
     17     20     23     26     1  0.0000000  0.4184000  1
     17     20     23     26     1  0.0000000  0.4184000  2
     17     20     23     26     1  0.0000000  1.2552000  3
     17     20     23     26     1  0.0000000  0.4184000  4
     17     20     23     26     1  0.0000000  0.4184000  5
     14     17     20     23     1  0.0000000  0.4184000  1
     14     17     20     23     1  0.0000000  0.4184000  2
     14     17     20     23     1  0.0000000  1.2552000  3
     14     17     20     23     1  0.0000000  0.4184000  4
     14     17     20     23     1  0.0000000  0.4184000  5
     11     14     17     20     1  0.0000000  0.4184000  1
     11     14     17     20     1  0.0000000  0.4184000  2
     11     14     17     20     1  0.0000000  1.2552000  3
     11     14     17     20     1  0.0000000  0.4184000  4
     11     14     17     20     1  0.0000000  0.4184000  5
      8     11     14     17     1  0.0000000  0.4184000  1
      8     11     14     17     1  0.0000000  0.4184000  2
      8     11     14     17     1  0.0000000  1.2552000  3
      8     11     14     17     1  0.0000000  0.4184000  4
      8     11     14     17     1  0.0000000  0.4184000  5
      5      8     11     14     1  0.0000000  0.4184000  1
      5      8     11     14     1  0.0000000  0.4184000  2
      5      8     11     14     1  0.0000000  1.2552000  3
      5      8     11     14     1  0.0000000  0.4184000  4
      5      8     11     14     1  0.0000000  0.4184000  5
      1      5      8     11     1  0.0000000  0.4184000  1
      1      5      8     11     1  0.0000000  0.4184000  2
      1      5      8     11     1  0.0000000  1.2552000  3
      1      5      8     11     1  0.0000000  0.4184000  4
      1      5      8     11     1  0.0000000  0.4184000  5
     88     86    132    130     1  0.0000000  0.0000000  2
     86    132    130    127     1  180.0000771  7.9496000  1
     86    132    130    127     1  180.0000771  27.8236000  2
     84     82     53     86     1  0.0000000  0.0000000  2
     82     53     86     88     1  0.0000000  0.6527040  3
     82     53     86    132     1  60.0000257  1.6736000  1
     82     53     86    132     1  180.0000771  5.4392000  2
     82     53     86    132     1  0.0000000  10.0416000  3
     61     60     59     80     1  0.0000000  0.0000000  1
     61     60     59     80     1  0.0000000  0.8368000  2
     61     60     59     80     1  0.0000000  0.0000000  3
     61     60     59     80     1  0.0000000  0.0000000  4
     61     60     59     80     1  0.0000000  0.0000000  5
     61     60     59     81     1  0.0000000  0.0000000  1
     61     60     59     81     1  0.0000000  0.8368000  2
     61     60     59     81     1  0.0000000  0.0000000  3
     61     60     59     81     1  0.0000000  0.0000000  4
     61     60     59     81     1  0.0000000  0.0000000  5
     61     64     67     72     1  0.0000000  0.6527040  3
     61     64     67     76     1  0.0000000  0.6527040  3
     61     64     67     68     1  0.0000000  0.6527040  3
     60     61     64     67     1  0.0000000  4.1840000  3
     59     60     61     64     1  180.0000771  -3.3472000  2
     59     60     61     64     1  0.0000000  0.0000000  3
     58     55     53     82     1  0.0000000  0.0000000  3
     58     55     53     86     1  180.0000771  3.3472000  1
     58     55     53     86     1  120.0000514  0.8368000  2
     58     55     53     86     1  60.0000257  1.6736000  3
     58     59     60     61     1  0.0000000  9.6232000  2
     58     59     60     61     1  0.0000000  2.5104000  3
     55     53     82     84     1  0.0000000  0.0000000  2
     55     53     86     88     1  0.0000000  0.6510304  3
     55     53     86    132     1  0.0000000  0.0000000  1
     55     53     86    132     1  0.0000000  0.0000000  2
     55     53     86    132     1  0.0000000  0.0000000  3
     55     53     86    132     1  0.0000000  0.0000000  4
     55     53     86    132     1  0.0000000  0.0000000  5
     55     58     59     60     1  0.0000000  9.6232000  2
     55     58     59     60     1  0.0000000  2.5104000  3
     55     58     59     80     1  0.0000000  0.0000000  1
     55     58     59     80     1  0.0000000  0.8368000  2
     55     58     59     80     1  0.0000000  0.0000000  3
     55     58     59     80     1  0.0000000  0.0000000  4
     55     58     59     80     1  0.0000000  0.0000000  5
     55     58     59     81     1  0.0000000  0.0000000  1
     55     58     59     81     1  0.0000000  0.8368000  2
     55     58     59     81     1  0.0000000  0.0000000  3
     55     58     59     81     1  0.0000000  0.0000000  4
     55     58     59     81     1  0.0000000  0.0000000  5
     53     82     84     85     1  180.0000771  10.4600000  2
     53     55     58     59     1  180.0000771  -3.3472000  2
     53     55     58     59     1  0.0000000  0.0000000  3
     53     86    132    130     1  0.0000000  0.0000000  2
    124    127    130    132     1  0.0000000  2.5104000  1
    124    127    130    132     1  180.0000771  1.6736000  2
    124    127    130    132     1  180.0000771  1.6736000  3
    124    127    130    132     1  180.0000771  0.8368000  4
    124    127    130    132     1  180.0000771  0.8368000  5
    121    124    127    130     1  0.0000000  0.0000000  1
    121    124    127    130     1  0.0000000  0.0000000  2
    121    124    127    130     1  0.0000000  2.0920000  3
    121    124    127    130     1  0.0000000  0.0000000  4
    121    124    127    130     1  0.0000000  0.4184000  5
    118    121    124    127     1  0.0000000  0.4184000  1
    118    121    124    127     1  0.0000000  0.4184000  2
    118    121    124    127     1  0.0000000  1.2552000  3
    118    121    124    127     1  0.0000000  0.4184000  4
    118    121    124    127     1  0.0000000  0.4184000  5
    115    118    121    124     1  0.0000000  0.4184000  1
    115    118    121    124     1  0.0000000  0.4184000  2
    115    118    121    124     1  0.0000000  1.2552000  3
    115    118    121    124     1  0.0000000  0.4184000  4
    115    118    121    124     1  0.0000000  0.4184000  5
    112    115    118    121     1  0.0000000  0.4184000  1
    112    115    118    121     1  0.0000000  0.4184000  2
    112    115    118    121     1  0.0000000  1.2552000  3
    112    115    118    121     1  0.0000000  0.4184000  4
    112    115    118    121     1  0.0000000  0.4184000  5
    109    112    115    118     1  0.0000000  0.4184000  1
    109    112    115    118     1  0.0000000  0.4184000  2
    109    112    115    118     1  0.0000000  1.2552000  3
    109    112    115    118     1  0.0000000  0.4184000  4
    109    112    115    118     1  0.0000000  0.4184000  5
    106    109    112    115     1  0.0000000  0.4184000  1
    106    109    112    115     1  0.0000000  0.4184000  2
    106    109    112    115     1  0.0000000  1.2552000  3
    106    109    112    115     1  0.0000000  0.4184000  4
    106    109    112    115     1  0.0000000  0.4184000  5
    103    106    109    112     1  0.0000000  0.4184000  1
    103    106    109    112     1  0.0000000  0.4184000  2
    103    106    109    112     1  0.0000000  1.2552000  3
    103    106    109    112     1  0.0000000  0.4184000  4
    103    106    109    112     1  0.0000000  0.4184000  5
    100    103    106    109     1  0.0000000  0.4184000  1
    100    103    106    109     1  0.0000000  0.4184000  2
    100    103    106    109     1  0.0000000  1.2552000  3
    100    103    106    109     1  0.0000000  0.4184000  4
    100    103    106    109     1  0.0000000  0.4184000  5
     97    100    103    106     1  0.0000000  0.4184000  1
     97    100    103    106     1  0.0000000  0.4184000  2
     97    100    103    106     1  0.0000000  1.2552000  3
     97    100    103    106     1  0.0000000  0.4184000  4
     97    100    103    106     1  0.0000000  0.4184000  5
     94     97    100    103     1  0.0000000  0.4184000  1
     94     97    100    103     1  0.0000000  0.4184000  2
     94     97    100    103     1  0.0000000  1.2552000  3
     94     97    100    103     1  0.0000000  0.4184000  4
     94     97    100    103     1  0.0000000  0.4184000  5
     90     94     97    100     1  0.0000000  0.4184000  1
     90     94     97    100     1  0.0000000  0.4184000  2
     90     94     97    100     1  0.0000000  1.2552000  3
     90     94     97    100     1  0.0000000  0.4184000  4
     90     94     97    100     1  0.0000000  0.4184000  5
     50     82     84     85     4  180.0000771  4.6024000  2
     52     50     84     82     1  0.0000000  0.0000000  2
     52     50     84     85     1  0.0000000  3.3472000  1
     52     50     84     85     1  180.0000771  0.3347200  3
     51     50     84     82     1  0.0000000  0.0000000  2
     51     50     84     85     1  0.0000000  3.3472000  1
     51     50     84     85     1  180.0000771  0.3347200  3
     50     84     82     83     1  180.0000771  10.4600000  2
     49     47     50     51     1  0.0000000  0.6276000  3
     49     47     50     52     1  0.0000000  0.6276000  3
     49     47     50     84     1  0.0000000  0.6527040  3
     48     47     50     51     1  0.0000000  0.6276000  3
     48     47     50     52     1  0.0000000  0.6276000  3
     48     47     50     84     1  0.0000000  0.6527040  3
     46     44     47     50     1  0.0000000  0.6694400  3
     46     44     47     49     1  0.0000000  0.6276000  3
     46     44     47     48     1  0.0000000  0.6276000  3
     45     44     47     50     1  0.0000000  0.6694400  3
     45     44     47     49     1  0.0000000  0.6276000  3
     45     44     47     48     1  0.0000000  0.6276000  3
     44     47     50     51     1  0.0000000  0.6694400  3
     44     47     50     52     1  0.0000000  0.6694400  3
     43     41     44     47     1  0.0000000  0.6694400  3
     43     41     44     45     1  0.0000000  0.6276000  3
     43     41     44     46     1  0.0000000  0.6276000  3
     42     41     44     47     1  0.0000000  0.6694400  3
     42     41     44     45     1  0.0000000  0.6276000  3
     42     41     44     46     1  0.0000000  0.6276000  3
     41     44     47     49     1  0.0000000  0.6694400  3
     41     44     47     48     1  0.0000000  0.6694400  3
     40     38     41     44     1  0.0000000  0.6694400  3
     40     38     41     43     1  0.0000000  0.6276000  3
     40     38     41     42     1  0.0000000  0.6276000  3
     39     38     41     44     1  0.0000000  0.6694400  3
     39     38     41     43     1  0.0000000  0.6276000  3
     39     38     41     42     1  0.0000000  0.6276000  3
     38     41     44     45     1  0.0000000  0.6694400  3
     38     41     44     46     1  0.0000000  0.6694400  3
     37     35     38     41     1  0.0000000  0.6694400  3
     37     35     38     39     1  0.0000000  0.6276000  3
     37     35     38     40     1  0.0000000  0.6276000  3
     36     35     38     41     1  0.0000000  0.6694400  3
     36     35     38     39     1  0.0000000  0.6276000  3
     36     35     38     40     1  0.0000000  0.6276000  3
     35     38     41     43     1  0.0000000  0.6694400  3
     35     38     41     42     1  0.0000000  0.6694400  3
     34     32     35     38     1  0.0000000  0.6694400  3
     34     32     35     37     1  0.0000000  0.6276000  3
     34     32     35     36     1  0.0000000  0.6276000  3
     33     32     35     38     1  0.0000000  0.6694400  3
     33     32     35     37     1  0.0000000  0.6276000  3
     33     32     35     36     1  0.0000000  0.6276000  3
     32     35     38     39     1  0.0000000  0.6694400  3
     32     35     38     40     1  0.0000000  0.6694400  3
     31     29     32     35     1  0.0000000  0.6694400  3
     31     29     32     33     1  0.0000000  0.6276000  3
     31     29     32     34     1  0.0000000  0.6276000  3
     30     29     32     35     1  0.0000000  0.6694400  3
     30     29     32     33     1  0.0000000  0.6276000  3
     30     29     32     34     1  0.0000000  0.6276000  3
     29     32     35     37     1  0.0000000  0.6694400  3
     29     32     35     36     1  0.0000000  0.6694400  3
     28     26     29     32     1  0.0000000  0.6694400  3
     28     26     29     31     1  0.0000000  0.6276000  3
     28     26     29     30     1  0.0000000  0.6276000  3
     27     26     29     32     1  0.0000000  0.6694400  3
     27     26     29     31     1  0.0000000  0.6276000  3
     27     26     29     30     1  0.0000000  0.6276000  3
     26     29     32     33     1  0.0000000  0.6694400  3
     26     29     32     34     1  0.0000000  0.6694400  3
     25     23     26     29     1  0.0000000  0.6694400  3
     25     23     26     27     1  0.0000000  0.6276000  3
     25     23     26     28     1  0.0000000  0.6276000  3
     24     23     26     29     1  0.0000000  0.6694400  3
     24     23     26     27     1  0.0000000  0.6276000  3
     24     23     26     28     1  0.0000000  0.6276000  3
     23     26     29     31     1  0.0000000  0.6694400  3
     23     26     29     30     1  0.0000000  0.6694400  3
     22     20     23     26     1  0.0000000  0.6694400  3
     22     20     23     25     1  0.0000000  0.6276000  3
     22     20     23     24     1  0.0000000  0.6276000  3
     21     20     23     26     1  0.0000000  0.6694400  3
     21     20     23     25     1  0.0000000  0.6276000  3
     21     20     23     24     1  0.0000000  0.6276000  3
     20     23     26     27     1  0.0000000  0.6694400  3
     20     23     26     28     1  0.0000000  0.6694400  3
     19     17     20     23     1  0.0000000  0.6694400  3
     19     17     20     21     1  0.0000000  0.6276000  3
     19     17     20     22     1  0.0000000  0.6276000  3
     18     17     20     23     1  0.0000000  0.6694400  3
     18     17     20     21     1  0.0000000  0.6276000  3
     18     17     20     22     1  0.0000000  0.6276000  3
     17     20     23     25     1  0.0000000  0.6694400  3
     17     20     23     24     1  0.0000000  0.6694400  3
     16     14     17     20     1  0.0000000  0.6694400  3
     16     14     17     19     1  0.0000000  0.6276000  3
     16     14     17     18     1  0.0000000  0.6276000  3
     15     14     17     20     1  0.0000000  0.6694400  3
     15     14     17     19     1  0.0000000  0.6276000  3
     15     14     17     18     1  0.0000000  0.6276000  3
     14     17     20     21     1  0.0000000  0.6694400  3
     14     17     20     22     1  0.0000000  0.6694400  3
     13     11     14     17     1  0.0000000  0.6694400  3
     13     11     14     15     1  0.0000000  0.6276000  3
     13     11     14     16     1  0.0000000  0.6276000  3
     12     11     14     17     1  0.0000000  0.6694400  3
     12     11     14     15     1  0.0000000  0.6276000  3
     12     11     14     16     1  0.0000000  0.6276000  3
     11     14     17     19     1  0.0000000  0.6694400  3
     11     14     17     18     1  0.0000000  0.6694400  3
     10      8     11     14     1  0.0000000  0.6694400  3
     10      8     11     13     1  0.0000000  0.6276000  3
     10      8     11     12     1  0.0000000  0.6276000  3
      9      8     11     14     1  0.0000000  0.6694400  3
      9      8     11     13     1  0.0000000  0.6276000  3
      9      8     11     12     1  0.0000000  0.6276000  3
      8     11     14     15     1  0.0000000  0.6694400  3
      8     11     14     16     1  0.0000000  0.6694400  3
      7      5      8     11     1  0.0000000  0.6694400  3
      7      5      8      9     1  0.0000000  0.6276000  3
      7      5      8     10     1  0.0000000  0.6276000  3
      6      5      8     11     1  0.0000000  0.6694400  3
      6      5      8      9     1  0.0000000  0.6276000  3
      6      5      8     10     1  0.0000000  0.6276000  3
      5      8     11     13     1  0.0000000  0.6694400  3
      5      8     11     12     1  0.0000000  0.6694400  3
      4      1      5      8     1  0.0000000  0.6694400  3
      4      1      5      7     1  0.0000000  0.6276000  3
      4      1      5      6     1  0.0000000  0.6276000  3
      3      1      5      8     1  0.0000000  0.6694400  3
      3      1      5      7     1  0.0000000  0.6276000  3
      3      1      5      6     1  0.0000000  0.6276000  3
      2      1      5      8     1  0.0000000  0.6694400  3
      2      1      5      7     1  0.0000000  0.6276000  3
      2      1      5      6     1  0.0000000  0.6276000  3
      1      5      8      9     1  0.0000000  0.6694400  3
      1      5      8     10     1  0.0000000  0.6694400  3
     89     88     86    132     1  0.0000000  1.0460000  1
     89     88     86    132     1  0.0000000  0.6694400  3
     88     86    132    133     1  0.0000000  0.0000000  2
     87     86     88     89     1  0.0000000  2.0920000  3
     87     86    132    130     1  0.0000000  0.0000000  2
     87     86    132    133     1  0.0000000  0.0000000  2
     86    132    130    131     1  180.0000771  27.8236000  2
     83     82     53     86     1  0.0000000  0.0000000  2
     83     82     84     85     1  180.0000771  10.4600000  2
     82     53     86     87     1  0.0000000  0.6527040  3
     75     72     67     76     1  0.0000000  0.6527040  3
     74     72     67     76     1  0.0000000  0.6527040  3
     73     72     67     76     1  0.0000000  0.6527040  3
     72     67     76     79     1  0.0000000  0.6527040  3
     72     67     76     77     1  0.0000000  0.6527040  3
     72     67     76     78     1  0.0000000  0.6527040  3
     71     68     67     72     1  0.0000000  0.6527040  3
     71     68     67     76     1  0.0000000  0.6527040  3
     70     68     67     72     1  0.0000000  0.6527040  3
     70     68     67     76     1  0.0000000  0.6527040  3
     69     68     67     72     1  0.0000000  0.6527040  3
     69     68     67     76     1  0.0000000  0.6527040  3
     68     67     72     75     1  0.0000000  0.6527040  3
     68     67     72     74     1  0.0000000  0.6527040  3
     68     67     72     73     1  0.0000000  0.6527040  3
     68     67     76     79     1  0.0000000  0.6527040  3
     68     67     76     77     1  0.0000000  0.6527040  3
     68     67     76     78     1  0.0000000  0.6527040  3
     66     64     67     72     1  0.0000000  0.6527040  3
     66     64     67     76     1  0.0000000  0.6527040  3
     66     64     67     68     1  0.0000000  0.6527040  3
     65     64     67     72     1  0.0000000  0.6527040  3
     65     64     67     76     1  0.0000000  0.6527040  3
     65     64     67     68     1  0.0000000  0.6527040  3
     64     67     72     75     1  0.0000000  0.6527040  3
     64     67     72     74     1  0.0000000  0.6527040  3
     64     67     72     73     1  0.0000000  0.6527040  3
     64     67     76     79     1  0.0000000  0.6527040  3
     64     67     76     77     1  0.0000000  0.6527040  3
     64     67     76     78     1  0.0000000  0.6527040  3
     64     67     68     69     1  0.0000000  0.6527040  3
     64     67     68     70     1  0.0000000  0.6527040  3
     64     67     68     71     1  0.0000000  0.6527040  3
     63     61     64     67     1  0.0000000  0.6527040  3
     63     61     64     65     1  0.0000000  0.6527040  3
     63     61     64     66     1  0.0000000  0.6527040  3
     62     61     64     67     1  0.0000000  0.6527040  3
     62     61     64     65     1  0.0000000  0.6527040  3
     62     61     64     66     1  0.0000000  0.6527040  3
     60     61     64     65     1  0.0000000  0.6527040  3
     60     61     64     66     1  0.0000000  0.6527040  3
     59     60     61     63     1  0.0000000  0.0000000  1
     59     60     61     63     1  0.0000000  0.0000000  2
     59     60     61     63     1  0.0000000  1.6024720  3
     59     60     61     63     1  0.0000000  0.0000000  4
     59     60     61     63     1  0.0000000  0.0000000  5
     59     60     61     62     1  0.0000000  0.0000000  1
     59     60     61     62     1  0.0000000  0.0000000  2
     59     60     61     62     1  0.0000000  1.6024720  3
     59     60     61     62     1  0.0000000  0.0000000  4
     59     60     61     62     1  0.0000000  0.0000000  5
     57     55     53     82     1  0.0000000  0.6527040  3
     57     55     53     86     1  0.0000000  0.6527040  3
     57     55     58     59     1  0.0000000  0.0000000  1
     57     55     58     59     1  0.0000000  0.0000000  2
     57     55     58     59     1  0.0000000  1.6024720  3
     57     55     58     59     1  0.0000000  0.0000000  4
     57     55     58     59     1  0.0000000  0.0000000  5
     56     55     53     82     1  0.0000000  0.6527040  3
     56     55     53     86     1  0.0000000  0.6527040  3
     56     55     58     59     1  0.0000000  0.0000000  1
     56     55     58     59     1  0.0000000  0.0000000  2
     56     55     58     59     1  0.0000000  1.6024720  3
     56     55     58     59     1  0.0000000  0.0000000  4
     56     55     58     59     1  0.0000000  0.0000000  5
     55     53     82     83     1  0.0000000  0.0000000  2
     55     53     86     87     1  0.0000000  0.6527040  3
     54     53     82     84     1  0.0000000  0.0000000  2
     54     53     82     83     1  0.0000000  0.0000000  2
     54     53     55     58     1  0.0000000  1.0460000  1
     54     53     55     58     1  0.0000000  0.0000000  3
     54     53     55     57     1  0.0000000  0.6527040  3
     54     53     55     56     1  0.0000000  0.6527040  3
     54     53     86     87     1  0.0000000  0.6527040  3
     54     53     86     88     1  0.0000000  1.0460000  1
     54     53     86     88     1  0.0000000  0.0000000  3
     54     53     86    132     1  0.0000000  0.6510304  3
     53     86     88     89     1  0.0000000  1.0460000  1
     53     86     88     89     1  0.0000000  0.6694400  3
     53     86    132    133     1  0.0000000  0.0000000  2
    131    130    132    133     1  180.0000771  27.8236000  2
    129    127    130    132     1  0.0000000  4.8116000  1
    129    127    130    132     1  180.0000771  1.5899200  3
    129    127    130    131     1  0.0000000  0.0000000  2
    128    127    130    132     1  0.0000000  4.8116000  1
    128    127    130    132     1  180.0000771  1.5899200  3
    128    127    130    131     1  0.0000000  0.0000000  2
    127    130    132    133     1  180.0000771  27.8236000  2
    126    124    127    130     1  0.0000000  0.6510304  3
    126    124    127    128     1  0.0000000  0.6276000  3
    126    124    127    129     1  0.0000000  0.6276000  3
    125    124    127    130     1  0.0000000  0.6510304  3
    125    124    127    128     1  0.0000000  0.6276000  3
    125    124    127    129     1  0.0000000  0.6276000  3
    124    127    130    131     1  0.0000000  0.0000000  2
    123    121    124    127     1  0.0000000  0.6694400  3
    123    121    124    126     1  0.0000000  0.6276000  3
    123    121    124    125     1  0.0000000  0.6276000  3
    122    121    124    127     1  0.0000000  0.6694400  3
    122    121    124    126     1  0.0000000  0.6276000  3
    122    121    124    125     1  0.0000000  0.6276000  3
    121    124    127    128     1  0.0000000  0.6694400  3
    121    124    127    129     1  0.0000000  0.6694400  3
    120    118    121    124     1  0.0000000  0.6694400  3
    120    118    121    122     1  0.0000000  0.6276000  3
    120    118    121    123     1  0.0000000  0.6276000  3
    119    118    121    124     1  0.0000000  0.6694400  3
    119    118    121    122     1  0.0000000  0.6276000  3
    119    118    121    123     1  0.0000000  0.6276000  3
    118    121    124    126     1  0.0000000  0.6694400  3
    118    121    124    125     1  0.0000000  0.6694400  3
    117    115    118    121     1  0.0000000  0.6694400  3
    117    115    118    120     1  0.0000000  0.6276000  3
    117    115    118    119     1  0.0000000  0.6276000  3
    116    115    118    121     1  0.0000000  0.6694400  3
    116    115    118    120     1  0.0000000  0.6276000  3
    116    115    118    119     1  0.0000000  0.6276000  3
    115    118    121    122     1  0.0000000  0.6694400  3
    115    118    121    123     1  0.0000000  0.6694400  3
    114    112    115    118     1  0.0000000  0.6694400  3
    114    112    115    117     1  0.0000000  0.6276000  3
    114    112    115    116     1  0.0000000  0.6276000  3
    113    112    115    118     1  0.0000000  0.6694400  3
    113    112    115    117     1  0.0000000  0.6276000  3
    113    112    115    116     1  0.0000000  0.6276000  3
    112    115    118    120     1  0.0000000  0.6694400  3
    112    115    118    119     1  0.0000000  0.6694400  3
    111    109    112    115     1  0.0000000  0.6694400  3
    111    109    112    113     1  0.0000000  0.6276000  3
    111    109    112    114     1  0.0000000  0.6276000  3
    110    109    112    115     1  0.0000000  0.6694400  3
    110    109    112    113     1  0.0000000  0.6276000  3
    110    109    112    114     1  0.0000000  0.6276000  3
    109    112    115    117     1  0.0000000  0.6694400  3
    109    112    115    116     1  0.0000000  0.6694400  3
    108    106    109    112     1  0.0000000  0.6694400  3
    108    106    109    110     1  0.0000000  0.6276000  3
    108    106    109    111     1  0.0000000  0.6276000  3
    107    106    109    112     1  0.0000000  0.6694400  3
    107    106    109    110     1  0.0000000  0.6276000  3
    107    106    109    111     1  0.0000000  0.6276000  3
    106    109    112    113     1  0.0000000  0.6694400  3
    106    109    112    114     1  0.0000000  0.6694400  3
    105    103    106    109     1  0.0000000  0.6694400  3
    105    103    106    108     1  0.0000000  0.6276000  3
    105    103    106    107     1  0.0000000  0.6276000  3
    104    103    106    109     1  0.0000000  0.6694400  3
    104    103    106    108     1  0.0000000  0.6276000  3
    104    103    106    107     1  0.0000000  0.6276000  3
    103    106    109    110     1  0.0000000  0.6694400  3
    103    106    109    111     1  0.0000000  0.6694400  3
    102    100    103    106     1  0.0000000  0.6694400  3
    102    100    103    105     1  0.0000000  0.6276000  3
    102    100    103    104     1  0.0000000  0.6276000  3
    101    100    103    106     1  0.0000000  0.6694400  3
    101    100    103    105     1  0.0000000  0.6276000  3
    101    100    103    104     1  0.0000000  0.6276000  3
    100    103    106    108     1  0.0000000  0.6694400  3
    100    103    106    107     1  0.0000000  0.6694400  3
     99     97    100    103     1  0.0000000  0.6694400  3
     99     97    100    102     1  0.0000000  0.6276000  3
     99     97    100    101     1  0.0000000  0.6276000  3
     98     97    100    103     1  0.0000000  0.6694400  3
     98     97    100    102     1  0.0000000  0.6276000  3
     98     97    100    101     1  0.0000000  0.6276000  3
     97    100    103    105     1  0.0000000  0.6694400  3
     97    100    103    104     1  0.0000000  0.6694400  3
     96     94     97    100     1  0.0000000  0.6694400  3
     96     94     97     98     1  0.0000000  0.6276000  3
     96     94     97     99     1  0.0000000  0.6276000  3
     95     94     97    100     1  0.0000000  0.6694400  3
     95     94     97     98     1  0.0000000  0.6276000  3
     95     94     97     99     1  0.0000000  0.6276000  3
     94     97    100    102     1  0.0000000  0.6694400  3
     94     97    100    101     1  0.0000000  0.6694400  3
     93     90     94     97     1  0.0000000  0.6694400  3
     93     90     94     96     1  0.0000000  0.6276000  3
     93     90     94     95     1  0.0000000  0.6276000  3
     92     90     94     97     1  0.0000000  0.6694400  3
     92     90     94     96     1  0.0000000  0.6276000  3
     92     90     94     95     1  0.0000000  0.6276000  3
     91     90     94     97     1  0.0000000  0.6694400  3
     91     90     94     96     1  0.0000000  0.6276000  3
     91     90     94     95     1  0.0000000  0.6276000  3
     90     94     97     98     1  0.0000000  0.6694400  3
     90     94     97     99     1  0.0000000  0.6694400  3
     53     84     82     83     4  180.0000771  4.6024000  2
     86    130    132    133     4  180.0000771  4.6024000  2
    132    127    130    131     4  180.0000771  4.6024000  2
