; Amber Lipid21 v1.0 non-bonded types (namespaced for safe composition)
[ atomtypes ]
; name at.num mass charge ptype sigma epsilon
L21_cA 6 12.010000 0.00000000 A 0.33996695 0.4577296
L21_cB 6 12.010000 0.00000000 A 0.33996695 0.359824
L21_cC 6 12.010000 0.00000000 A 0.33996695 0.359824
L21_cD 6 12.010000 0.00000000 A 0.33996695 0.4577296
L21_hA 1 1.008000 0.00000000 A 0.26495328 0.0656888
L21_hB 1 1.008000 0.00000000 A 0.22272468 0.029288
L21_hE 1 1.008000 0.00000000 A 0.2471353 0.0656888
L21_hL 1 1.008000 0.00000000 A 0.26014243 0.04184
L21_hN 1 1.008000 0.00000000 A 0.10690785 0.0656888
L21_hO 1 1.008000 0.00000000 A 0.10690785 0.0656888
L21_hX 1 1.008000 0.00000000 A 0.19599772 0.0656888
L21_nA 7 14.010000 0.00000000 A 0.32499985 0.71128
L21_nN 7 14.010000 0.00000000 A 0.32499985 0.71128
L21_oC 8 16.000000 0.00000000 A 0.29599219 0.87864
L21_oH 8 16.000000 0.00000000 A 0.30664734 0.8803136
L21_oO 8 16.000000 0.00000000 A 0.29599219 0.87864
L21_oP 8 16.000000 0.00000000 A 0.29599219 0.87864
L21_oS 8 16.000000 0.00000000 A 0.30000123 0.71128
L21_oT 8 16.000000 0.00000000 A 0.30000123 0.71128
L21_pA 15 30.970000 0.00000000 A 0.37417746 0.8368
